<event>
 4    1  0.7424968E+004  0.2180709E+02  0.7546771E-02  0.1711610E+00
         21   -1    0    0  501  502  0.00000000000E+00  0.00000000000E+00  0.13556249096E+02  0.13556249096E+02  0.00000000000E+00 0. -1.
         21   -1    0    0  502  503 -0.00000000000E+00 -0.00000000000E+00 -0.37580379904E+02  0.37580379904E+02  0.00000000000E+00 0. -1.
          5    1    1    2  501    0 -0.16468416732E+02  0.14294771838E+02 -0.18607598853E+02  0.28666914494E+02  0.00000000000E+00 0. -1.
         -5    1    1    2    0  503  0.16468416732E+02 -0.14294771838E+02 -0.54165319553E+01  0.22469714506E+02  0.00000000000E+00 0.  1.
<mgrwt>
<rscale>  2 0.21807092E+02</rscale>
<asrwt>0</asrwt>
<pdfrwt beam="1">  1       21 0.20855768E-02 0.21807092E+02</pdfrwt>
<pdfrwt beam="2">  1       21 0.57815968E-02 0.21807092E+02</pdfrwt>
<totfact> 0.15688865E+08</totfact>
</mgrwt>
</event>
<event>
 4    1  0.7424968E+004  0.2262934E+02  0.7546771E-02  0.1697590E+00
         21   -1    0    0  503  502  0.00000000000E+00  0.00000000000E+00  0.16623453570E+01  0.16623453570E+01  0.00000000000E+00 0. -1.
         21   -1    0    0  501  503 -0.00000000000E+00 -0.00000000000E+00 -0.32159164304E+03  0.32159164304E+03  0.00000000000E+00 0. -1.
          1    1    1    2  501    0 -0.14553035045E+01 -0.22582491858E+02 -0.12679933705E+03  0.12880279005E+03  0.00000000000E+00 0.  1.
         -1    1    1    2    0  502  0.14553035045E+01  0.22582491858E+02 -0.19312996063E+03  0.19445119835E+03  0.00000000000E+00 0. -1.
<mgrwt>
<rscale>  2 0.22629336E+02</rscale>
<asrwt>0</asrwt>
<pdfrwt beam="1">  1       21 0.25574578E-03 0.22629336E+02</pdfrwt>
<pdfrwt beam="2">  1       21 0.49475572E-01 0.22629336E+02</pdfrwt>
<totfact> 0.87199819E+07</totfact>
</mgrwt>
</event>
<event>
 4    1  0.7424968E+004  0.2331332E+02  0.7546771E-02  0.1686481E+00
         21   -1    0    0  501  502  0.00000000000E+00  0.00000000000E+00  0.60361270813E+02  0.60361270813E+02  0.00000000000E+00 0. -1.
         21   -1    0    0  502  503 -0.00000000000E+00 -0.00000000000E+00 -0.90802497636E+01  0.90802497636E+01  0.00000000000E+00 0. -1.
          5    1    1    2  501    0  0.92729815870E+00 -0.23294871996E+02  0.22465056741E+02  0.32375758178E+02  0.00000000000E+00 0. -1.
         -5    1    1    2    0  503 -0.92729815870E+00  0.23294871996E+02  0.28815964309E+02  0.37065762399E+02  0.00000000000E+00 0.  1.
<mgrwt>
<rscale>  2 0.23313321E+02</rscale>
<asrwt>0</asrwt>
<pdfrwt beam="1">  1       21 0.92863491E-02 0.23313321E+02</pdfrwt>
<pdfrwt beam="2">  1       21 0.13969615E-02 0.23313321E+02</pdfrwt>
<totfact> 0.13673853E+08</totfact>
</mgrwt>
</event>
<event>
 4    1  0.7424968E+004  0.2968406E+02  0.7546771E-02  0.1601607E+00
         21   -1    0    0  501  502  0.00000000000E+00  0.00000000000E+00  0.36258616965E+01  0.36258616965E+01  0.00000000000E+00 0.  1.
         21   -1    0    0  502  503 -0.00000000000E+00 -0.00000000000E+00 -0.35014508892E+03  0.35014508892E+03  0.00000000000E+00 0.  1.
          1    1    1    2  501    0  0.29403603176E+02  0.40708158408E+01 -0.27110070565E+03  0.27272098567E+03  0.00000000000E+00 0.  1.
         -1    1    1    2    0  503 -0.29403603176E+02 -0.40708158408E+01 -0.75418521572E+02  0.81049964944E+02  0.00000000000E+00 0. -1.
<mgrwt>
<rscale>  2 0.29684060E+02</rscale>
<asrwt>0</asrwt>
<pdfrwt beam="1">  1       21 0.55782480E-03 0.29684060E+02</pdfrwt>
<pdfrwt beam="2">  1       21 0.53868482E-01 0.29684060E+02</pdfrwt>
<totfact> 0.24856671E+07</totfact>
</mgrwt>
</event>
<event>
 4    1  0.7424968E+004  0.2316775E+02  0.7546771E-02  0.1688805E+00
         21   -1    0    0  503  502  0.00000000000E+00  0.00000000000E+00  0.30591050248E+02  0.30591050248E+02  0.00000000000E+00 0.  1.
         21   -1    0    0  501  503 -0.00000000000E+00 -0.00000000000E+00 -0.17779568815E+02  0.17779568815E+02  0.00000000000E+00 0.  1.
          4    1    1    2  501    0  0.14029708533E+02  0.18436698279E+02  0.91789383379E+01  0.24919820905E+02  0.00000000000E+00 0.  1.
         -4    1    1    2    0  502 -0.14029708533E+02 -0.18436698279E+02  0.36325430952E+01  0.23450798158E+02  0.00000000000E+00 0. -1.
<mgrwt>
<rscale>  2 0.23167748E+02</rscale>
<asrwt>0</asrwt>
<pdfrwt beam="1">  1       21 0.47063154E-02 0.23167748E+02</pdfrwt>
<pdfrwt beam="2">  1       21 0.27353183E-02 0.23167748E+02</pdfrwt>
<totfact> 0.14600128E+08</totfact>
</mgrwt>
</event>
<event>
 4    1  0.7424968E+004  0.2354421E+02  0.7546771E-02  0.1682838E+00
         21   -1    0    0  501  502  0.00000000000E+00  0.00000000000E+00  0.76999947327E+02  0.76999947327E+02  0.00000000000E+00 0. -1.
         21   -1    0    0  502  503 -0.00000000000E+00 -0.00000000000E+00 -0.87433643941E+01  0.87433643941E+01  0.00000000000E+00 0. -1.
          2    1    1    2  501    0 -0.22375894596E+02 -0.73245618034E+01  0.16110870292E+02  0.28528757529E+02  0.00000000000E+00 0. -1.
         -2    1    1    2    0  503  0.22375894596E+02  0.73245618034E+01  0.52145712641E+02  0.57214554192E+02  0.00000000000E+00 0.  1.
<mgrwt>
<rscale>  2 0.23544211E+02</rscale>
<asrwt>0</asrwt>
<pdfrwt beam="1">  1       21 0.11846145E-01 0.23544211E+02</pdfrwt>
<pdfrwt beam="2">  1       21 0.13451330E-02 0.23544211E+02</pdfrwt>
<totfact> 0.96925909E+07</totfact>
</mgrwt>
</event>
<event>
 4    1  0.7424968E+004  0.2166108E+02  0.7546771E-02  0.1714180E+00
         21   -1    0    0  503  502  0.00000000000E+00  0.00000000000E+00  0.71326544448E+00  0.71326544448E+00  0.00000000000E+00 0.  1.
         21   -1    0    0  501  503 -0.00000000000E+00 -0.00000000000E+00 -0.92944957946E+03  0.92944957946E+03  0.00000000000E+00 0.  1.
          5    1    1    2  501    0 -0.13203217727E+02 -0.17171997299E+02 -0.71578951481E+03  0.71611719150E+03  0.00000000000E+00 0. -1.
         -5    1    1    2    0  502  0.13203217727E+02  0.17171997299E+02 -0.21294679921E+03  0.21404565341E+03  0.00000000000E+00 0.  1.
<mgrwt>
<rscale>  2 0.21661081E+02</rscale>
<asrwt>0</asrwt>
<pdfrwt beam="1">  1       21 0.10973312E-03 0.21661081E+02</pdfrwt>
<pdfrwt beam="2">  1       21 0.14299228E+00 0.21661081E+02</pdfrwt>
<totfact> 0.30629470E+07</totfact>
</mgrwt>
</event>
<event>
 4    1  0.7424968E+004  0.2152163E+02  0.7546771E-02  0.1716659E+00
         21   -1    0    0  503  502  0.00000000000E+00  0.00000000000E+00  0.16307267923E+01  0.16307267923E+01  0.00000000000E+00 0. -1.
         21   -1    0    0  501  503 -0.00000000000E+00 -0.00000000000E+00 -0.30781985811E+03  0.30781985811E+03  0.00000000000E+00 0. -1.
          4    1    1    2  501    0  0.21519194306E+02  0.32370089195E+00 -0.19610560657E+03  0.19728301861E+03  0.00000000000E+00 0.  1.
         -4    1    1    2    0  502 -0.21519194306E+02 -0.32370089195E+00 -0.11008352475E+03  0.11216756629E+03  0.00000000000E+00 0. -1.
<mgrwt>
<rscale>  2 0.21521629E+02</rscale>
<asrwt>0</asrwt>
<pdfrwt beam="1">  1       21 0.25088119E-03 0.21521629E+02</pdfrwt>
<pdfrwt beam="2">  1       21 0.47356874E-01 0.21521629E+02</pdfrwt>
<totfact> 0.96299578E+07</totfact>
</mgrwt>
</event>
<event>
 4    1  0.7424968E+004  0.3340801E+02  0.7546771E-02  0.1563210E+00
         21   -1    0    0  501  502  0.00000000000E+00  0.00000000000E+00  0.44975396359E+03  0.44975396359E+03  0.00000000000E+00 0.  1.
         21   -1    0    0  502  503 -0.00000000000E+00 -0.00000000000E+00 -0.44998700640E+01  0.44998700640E+01  0.00000000000E+00 0.  1.
          2    1    1    2  501    0 -0.23188442500E+02  0.24049760025E+02  0.70515650143E+02  0.78029172352E+02  0.00000000000E+00 0.  1.
         -2    1    1    2    0  503  0.23188442500E+02 -0.24049760025E+02  0.37473844339E+03  0.37622466131E+03  0.00000000000E+00 0. -1.
<mgrwt>
<rscale>  2 0.33408005E+02</rscale>
<asrwt>0</asrwt>
<pdfrwt beam="1">  1       21 0.69192882E-01 0.33408005E+02</pdfrwt>
<pdfrwt beam="2">  1       21 0.69228806E-03 0.33408005E+02</pdfrwt>
<totfact> 0.11018432E+07</totfact>
</mgrwt>
</event>
<event>
 4    1  0.7424968E+004  0.2039778E+02  0.7546771E-02  0.1737531E+00
         21   -1    0    0  501  502  0.00000000000E+00  0.00000000000E+00  0.17439446692E+01  0.17439446692E+01  0.00000000000E+00 0. -1.
         21   -1    0    0  502  503 -0.00000000000E+00 -0.00000000000E+00 -0.24005619316E+03  0.24005619316E+03  0.00000000000E+00 0. -1.
          5    1    1    2  501    0  0.98752028745E+01 -0.17847967841E+02 -0.10967404980E+03  0.11155477035E+03  0.00000000000E+00 0.  1.
         -5    1    1    2    0  503 -0.98752028745E+01  0.17847967841E+02 -0.12863819870E+03  0.13024536749E+03  0.00000000000E+00 0. -1.
<mgrwt>
<rscale>  2 0.20397784E+02</rscale>
<asrwt>0</asrwt>
<pdfrwt beam="1">  1       21 0.26829893E-03 0.20397784E+02</pdfrwt>
<pdfrwt beam="2">  1       21 0.36931757E-01 0.20397784E+02</pdfrwt>
<totfact> 0.13767904E+08</totfact>
</mgrwt>
</event>
<event>
 4    1  0.7424968E+004  0.2860449E+02  0.7546771E-02  0.1614047E+00
         21   -1    0    0  503  502  0.00000000000E+00  0.00000000000E+00  0.89891275913E+03  0.89891275913E+03  0.00000000000E+00 0.  1.
         21   -1    0    0  501  503 -0.00000000000E+00 -0.00000000000E+00 -0.96484396458E+00  0.96484396458E+00  0.00000000000E+00 0.  1.
          4    1    1    2  501    0 -0.13191131605E+02 -0.25381309506E+02  0.34192581762E+03  0.34312021447E+03  0.00000000000E+00 0.  1.
         -4    1    1    2    0  502  0.13191131605E+02  0.25381309506E+02  0.55602209755E+03  0.55675738862E+03  0.00000000000E+00 0. -1.
<mgrwt>
<rscale>  2 0.28604490E+02</rscale>
<asrwt>0</asrwt>
<pdfrwt beam="1">  1       21 0.13829360E+00 0.28604490E+02</pdfrwt>
<pdfrwt beam="2">  1       21 0.14843825E-03 0.28604490E+02</pdfrwt>
<totfact> 0.22541915E+07</totfact>
</mgrwt>
</event>
<event>
 4    1  0.7424968E+004  0.3875827E+02  0.7546771E-02  0.1517553E+00
         21   -1    0    0  503  502  0.00000000000E+00  0.00000000000E+00  0.13523810323E+02  0.13523810323E+02  0.00000000000E+00 0. -1.
         21   -1    0    0  501  503 -0.00000000000E+00 -0.00000000000E+00 -0.14478180452E+03  0.14478180452E+03  0.00000000000E+00 0. -1.
          1    1    1    2  501    0  0.25519285514E+02  0.29171385248E+02 -0.10381867614E+03  0.11081751291E+03  0.00000000000E+00 0.  1.
         -1    1    1    2    0  502 -0.25519285514E+02 -0.29171385248E+02 -0.27439318055E+02  0.47488101939E+02  0.00000000000E+00 0. -1.
<mgrwt>
<rscale>  2 0.38758272E+02</rscale>
<asrwt>0</asrwt>
<pdfrwt beam="1">  1       21 0.20805862E-02 0.38758272E+02</pdfrwt>
<pdfrwt beam="2">  1       21 0.22274124E-01 0.38758272E+02</pdfrwt>
<totfact> 0.18418110E+07</totfact>
</mgrwt>
</event>
<event>
 4    1  0.7424968E+004  0.2214679E+02  0.7546771E-02  0.1705726E+00
         21   -1    0    0  503  502  0.00000000000E+00  0.00000000000E+00  0.54667582891E+01  0.54667582891E+01  0.00000000000E+00 0. -1.
         21   -1    0    0  501  503 -0.00000000000E+00 -0.00000000000E+00 -0.11137507419E+03  0.11137507419E+03  0.00000000000E+00 0. -1.
          5    1    1    2  501    0 -0.21123982899E+02  0.66526531772E+01 -0.27193978144E+02  0.35071254541E+02  0.00000000000E+00 0. -1.
         -5    1    1    2    0  502  0.21123982899E+02 -0.66526531772E+01 -0.78714337758E+02  0.81770577939E+02  0.00000000000E+00 0.  1.
<mgrwt>
<rscale>  2 0.22146793E+02</rscale>
<asrwt>0</asrwt>
<pdfrwt beam="1">  1       21 0.84103977E-03 0.22146793E+02</pdfrwt>
<pdfrwt beam="2">  1       21 0.17134626E-01 0.22146793E+02</pdfrwt>
<totfact> 0.10326184E+08</totfact>
</mgrwt>
</event>
<event>
 4    1  0.7424968E+004  0.2187537E+02  0.7546771E-02  0.1710416E+00
         21   -1    0    0  503  502  0.00000000000E+00  0.00000000000E+00  0.22265480316E+01  0.22265480316E+01  0.00000000000E+00 0. -1.
         21   -1    0    0  501  503 -0.00000000000E+00 -0.00000000000E+00 -0.24924487507E+03  0.24924487507E+03  0.00000000000E+00 0. -1.
          2    1    1    2  501    0 -0.21134558542E+02 -0.56446615901E+01 -0.17016909933E+03  0.17156938577E+03  0.00000000000E+00 0.  1.
         -2    1    1    2    0  502  0.21134558542E+02  0.56446615901E+01 -0.76849227711E+02  0.79902037327E+02  0.00000000000E+00 0. -1.
<mgrwt>
<rscale>  2 0.21875369E+02</rscale>
<asrwt>0</asrwt>
<pdfrwt beam="1">  1       21 0.34254594E-03 0.21875369E+02</pdfrwt>
<pdfrwt beam="2">  1       21 0.38345355E-01 0.21875369E+02</pdfrwt>
<totfact> 0.91772251E+07</totfact>
</mgrwt>
</event>
<event>
 4    1  0.7424968E+004  0.2438338E+02  0.7546771E-02  0.1670020E+00
         21   -1    0    0  501  502  0.00000000000E+00  0.00000000000E+00  0.21105276353E+01  0.21105276353E+01  0.00000000000E+00 0. -1.
         21   -1    0    0  502  503 -0.00000000000E+00 -0.00000000000E+00 -0.34960738501E+03  0.34960738501E+03  0.00000000000E+00 0. -1.
          2    1    1    2  501    0  0.20084485536E+02  0.13826159837E+02 -0.25125027677E+03  0.25243068521E+03  0.00000000000E+00 0. -1.
         -2    1    1    2    0  503 -0.20084485536E+02 -0.13826159837E+02 -0.96246580603E+02  0.99287227441E+02  0.00000000000E+00 0.  1.
<mgrwt>
<rscale>  2 0.24383381E+02</rscale>
<asrwt>0</asrwt>
<pdfrwt beam="1">  1       21 0.32469709E-03 0.24383381E+02</pdfrwt>
<pdfrwt beam="2">  1       21 0.53785664E-01 0.24383381E+02</pdfrwt>
<totfact> 0.53272170E+07</totfact>
</mgrwt>
</event>
<event>
 4    1  0.7424968E+004  0.2151712E+02  0.7546771E-02  0.1716739E+00
         21   -1    0    0  501  502  0.00000000000E+00  0.00000000000E+00  0.80436282611E+01  0.80436282611E+01  0.00000000000E+00 0.  1.
         21   -1    0    0  502  503 -0.00000000000E+00 -0.00000000000E+00 -0.89686675732E+02  0.89686675732E+02  0.00000000000E+00 0.  1.
          1    1    1    2  501    0  0.15384748499E+02 -0.15043133984E+02 -0.11575132666E+02  0.24432970811E+02  0.00000000000E+00 0.  1.
         -1    1    1    2    0  503 -0.15384748499E+02  0.15043133984E+02 -0.70067914805E+02  0.73297333181E+02  0.00000000000E+00 0. -1.
<mgrwt>
<rscale>  2 0.21517118E+02</rscale>
<asrwt>0</asrwt>
<pdfrwt beam="1">  1       21 0.12374813E-02 0.21517118E+02</pdfrwt>
<pdfrwt beam="2">  1       21 0.13797950E-01 0.21517118E+02</pdfrwt>
<totfact> 0.82975026E+07</totfact>
</mgrwt>
</event>
<event>
 4    1  0.7424968E+004  0.2267033E+02  0.7546771E-02  0.1696910E+00
         21   -1    0    0  503  502  0.00000000000E+00  0.00000000000E+00  0.24427527938E+02  0.24427527938E+02  0.00000000000E+00 0.  1.
         21   -1    0    0  501  503 -0.00000000000E+00 -0.00000000000E+00 -0.22031122675E+02  0.22031122675E+02  0.00000000000E+00 0.  1.
          3    1    1    2  501    0 -0.12309702703E+02 -0.19037197985E+02  0.61263661310E+01  0.23483527200E+02  0.00000000000E+00 0. -1.
         -3    1    1    2    0  502  0.12309702703E+02  0.19037197985E+02 -0.37299608679E+01  0.22975123413E+02  0.00000000000E+00 0.  1.
<mgrwt>
<rscale>  2 0.22670326E+02</rscale>
<asrwt>0</asrwt>
<pdfrwt beam="1">  1       21 0.37580812E-02 0.22670326E+02</pdfrwt>
<pdfrwt beam="2">  1       21 0.33894035E-02 0.22670326E+02</pdfrwt>
<totfact> 0.14815747E+08</totfact>
</mgrwt>
</event>
<event>
 4    1  0.7424968E+004  0.2829687E+02  0.7546771E-02  0.1617715E+00
         21   -1    0    0  503  502  0.00000000000E+00  0.00000000000E+00  0.72404352534E+02  0.72404352534E+02  0.00000000000E+00 0.  1.
         21   -1    0    0  501  503 -0.00000000000E+00 -0.00000000000E+00 -0.11060021741E+02  0.11060021741E+02  0.00000000000E+00 0.  1.
          2    1    1    2  501    0  0.98449782663E+01 -0.26529031132E+02  0.30253428626E+02  0.41424425566E+02  0.00000000000E+00 0. -1.
         -2    1    1    2    0  502 -0.98449782663E+01  0.26529031132E+02  0.31090902168E+02  0.42039948709E+02  0.00000000000E+00 0.  1.
<mgrwt>
<rscale>  2 0.28296874E+02</rscale>
<asrwt>0</asrwt>
<pdfrwt beam="1">  1       21 0.11139131E-01 0.28296874E+02</pdfrwt>
<pdfrwt beam="2">  1       21 0.17015419E-02 0.28296874E+02</pdfrwt>
<totfact> 0.78723305E+07</totfact>
</mgrwt>
</event>
<event>
 4    1  0.7424968E+004  0.5961165E+02  0.7546771E-02  0.1399469E+00
         21   -1    0    0  503  502  0.00000000000E+00  0.00000000000E+00  0.18613214941E+03  0.18613214941E+03  0.00000000000E+00 0.  1.
         21   -1    0    0  501  503 -0.00000000000E+00 -0.00000000000E+00 -0.19173128980E+02  0.19173128980E+02  0.00000000000E+00 0.  1.
          5    1    1    2  501    0  0.56362496139E+02 -0.19411785020E+02  0.90176101234E+02  0.10809846253E+03  0.00000000000E+00 0.  1.
         -5    1    1    2    0  502 -0.56362496139E+02  0.19411785020E+02  0.76782919199E+02  0.97206815859E+02  0.00000000000E+00 0. -1.
<mgrwt>
<rscale>  2 0.59611646E+02</rscale>
<asrwt>0</asrwt>
<pdfrwt beam="1">  1       21 0.28635714E-01 0.59611646E+02</pdfrwt>
<pdfrwt beam="2">  1       21 0.29497123E-02 0.59611646E+02</pdfrwt>
<totfact> 0.70415559E+06</totfact>
</mgrwt>
</event>
<event>
 4    1  0.7424968E+004  0.2280690E+02  0.7546771E-02  0.1694659E+00
         21   -1    0    0  503  502  0.00000000000E+00  0.00000000000E+00  0.10862498014E+01  0.10862498014E+01  0.00000000000E+00 0.  1.
         21   -1    0    0  501  503 -0.00000000000E+00 -0.00000000000E+00 -0.47987939556E+03  0.47987939556E+03  0.00000000000E+00 0.  1.
          3    1    1    2  501    0 -0.76139446823E+01  0.21498432489E+02 -0.22827864093E+03  0.22941510991E+03  0.00000000000E+00 0.  1.
         -3    1    1    2    0  502  0.76139446823E+01 -0.21498432489E+02 -0.25051450484E+03  0.25155053545E+03  0.00000000000E+00 0. -1.
<mgrwt>
<rscale>  2 0.22806901E+02</rscale>
<asrwt>0</asrwt>
<pdfrwt beam="1">  1       21 0.16711506E-03 0.22806901E+02</pdfrwt>
<pdfrwt beam="2">  1       21 0.73827729E-01 0.22806901E+02</pdfrwt>
<totfact> 0.72507414E+07</totfact>
</mgrwt>
</event>
<event>
 4    1  0.7424968E+004  0.2102625E+02  0.7546771E-02  0.1725658E+00
         21   -1    0    0  503  502  0.00000000000E+00  0.00000000000E+00  0.83114166770E+01  0.83114166770E+01  0.00000000000E+00 0.  1.
         21   -1    0    0  501  503 -0.00000000000E+00 -0.00000000000E+00 -0.58572249096E+02  0.58572249096E+02  0.00000000000E+00 0.  1.
          1    1    1    2  501    0  0.16577132560E+01 -0.20960802275E+02 -0.35265650854E+02  0.41058121917E+02  0.00000000000E+00 0.  1.
         -1    1    1    2    0  502 -0.16577132560E+01  0.20960802275E+02 -0.14995181566E+02  0.25825543856E+02  0.00000000000E+00 0. -1.
<mgrwt>
<rscale>  2 0.21026251E+02</rscale>
<asrwt>0</asrwt>
<pdfrwt beam="1">  1       21 0.12786795E-02 0.21026251E+02</pdfrwt>
<pdfrwt beam="2">  1       21 0.90111151E-02 0.21026251E+02</pdfrwt>
<totfact> 0.15918747E+08</totfact>
</mgrwt>
</event>
<event>
 4    1  0.7424968E+004  0.2044642E+02  0.7546771E-02  0.1736593E+00
         21   -1    0    0  503  502  0.00000000000E+00  0.00000000000E+00  0.15526147335E+03  0.15526147335E+03  0.00000000000E+00 0.  1.
         21   -1    0    0  501  503 -0.00000000000E+00 -0.00000000000E+00 -0.28846818297E+01  0.28846818297E+01  0.00000000000E+00 0.  1.
          4    1    1    2  501    0  0.12934963626E+02 -0.15834863970E+02  0.55783754818E+02  0.59412822712E+02  0.00000000000E+00 0.  1.
         -4    1    1    2    0  502 -0.12934963626E+02  0.15834863970E+02  0.96593036703E+02  0.98733332469E+02  0.00000000000E+00 0. -1.
<mgrwt>
<rscale>  2 0.20446423E+02</rscale>
<asrwt>0</asrwt>
<pdfrwt beam="1">  1       21 0.23886374E-01 0.20446423E+02</pdfrwt>
<pdfrwt beam="2">  1       21 0.44379733E-03 0.20446423E+02</pdfrwt>
<totfact> 0.14560159E+08</totfact>
</mgrwt>
</event>
<event>
 4    1  0.7424968E+004  0.2436730E+02  0.7546771E-02  0.1670259E+00
         21   -1    0    0  503  502  0.00000000000E+00  0.00000000000E+00  0.12466260193E+02  0.12466260193E+02  0.00000000000E+00 0.  1.
         21   -1    0    0  501  503 -0.00000000000E+00 -0.00000000000E+00 -0.52419773572E+02  0.52419773572E+02  0.00000000000E+00 0.  1.
          3    1    1    2  501    0  0.19791641462E+02 -0.14214648304E+02 -0.29783862954E+02  0.38481733207E+02  0.00000000000E+00 0. -1.
         -3    1    1    2    0  502 -0.19791641462E+02  0.14214648304E+02 -0.10169650425E+02  0.26404300557E+02  0.00000000000E+00 0.  1.
<mgrwt>
<rscale>  2 0.24367300E+02</rscale>
<asrwt>0</asrwt>
<pdfrwt beam="1">  1       21 0.19178862E-02 0.24367300E+02</pdfrwt>
<pdfrwt beam="2">  1       21 0.80645805E-02 0.24367300E+02</pdfrwt>
<totfact> 0.10764151E+08</totfact>
</mgrwt>
</event>
<event>
 4    1  0.7424968E+004  0.2886378E+02  0.7546771E-02  0.1610999E+00
         21   -1    0    0  503  502  0.00000000000E+00  0.00000000000E+00  0.25163778364E+01  0.25163778364E+01  0.00000000000E+00 0. -1.
         21   -1    0    0  501  503 -0.00000000000E+00 -0.00000000000E+00 -0.44824412621E+03  0.44824412621E+03  0.00000000000E+00 0. -1.
          3    1    1    2  501    0 -0.28685620594E+02 -0.32020424178E+01 -0.33809218024E+03  0.33932203029E+03  0.00000000000E+00 0. -1.
         -3    1    1    2    0  502  0.28685620594E+02  0.32020424178E+01 -0.10763556814E+03  0.11143847375E+03  0.00000000000E+00 0.  1.
<mgrwt>
<rscale>  2 0.28863782E+02</rscale>
<asrwt>0</asrwt>
<pdfrwt beam="1">  1       21 0.38713530E-03 0.28863782E+02</pdfrwt>
<pdfrwt beam="2">  1       21 0.68960590E-01 0.28863782E+02</pdfrwt>
<totfact> 0.25787415E+07</totfact>
</mgrwt>
</event>
<event>
 4    1  0.7424968E+004  0.2135682E+02  0.7546771E-02  0.1719619E+00
         21   -1    0    0  501  502  0.00000000000E+00  0.00000000000E+00  0.27779704358E+03  0.27779704358E+03  0.00000000000E+00 0.  1.
         21   -1    0    0  502  503 -0.00000000000E+00 -0.00000000000E+00 -0.17319491391E+01  0.17319491391E+01  0.00000000000E+00 0.  1.
          2    1    1    2  501    0  0.20169080921E+02  0.70229450513E+01  0.10616261880E+03  0.10828949724E+03  0.00000000000E+00 0.  1.
         -2    1    1    2    0  503 -0.20169080921E+02 -0.70229450513E+01  0.16990247564E+03  0.17123949547E+03  0.00000000000E+00 0. -1.
<mgrwt>
<rscale>  2 0.21356816E+02</rscale>
<asrwt>0</asrwt>
<pdfrwt beam="1">  1       21 0.42737971E-01 0.21356816E+02</pdfrwt>
<pdfrwt beam="2">  1       21 0.26645393E-03 0.21356816E+02</pdfrwt>
<totfact> 0.10713036E+08</totfact>
</mgrwt>
</event>
<event>
 4    1  0.7424968E+004  0.2057790E+02  0.7546771E-02  0.1734074E+00
         21   -1    0    0  503  502  0.00000000000E+00  0.00000000000E+00  0.35282722164E+02  0.35282722164E+02  0.00000000000E+00 0. -1.
         21   -1    0    0  501  503 -0.00000000000E+00 -0.00000000000E+00 -0.12621213498E+02  0.12621213498E+02  0.00000000000E+00 0. -1.
          1    1    1    2  501    0  0.14934961984E+02  0.14156158445E+02  0.60238262698E+01  0.21441464370E+02  0.00000000000E+00 0. -1.
         -1    1    1    2    0  502 -0.14934961984E+02 -0.14156158445E+02  0.16637682396E+02  0.26462471292E+02  0.00000000000E+00 0.  1.
<mgrwt>
<rscale>  2 0.20577899E+02</rscale>
<asrwt>0</asrwt>
<pdfrwt beam="1">  1       21 0.54281110E-02 0.20577899E+02</pdfrwt>
<pdfrwt beam="2">  1       21 0.19417252E-02 0.20577899E+02</pdfrwt>
<totfact> 0.19005106E+08</totfact>
</mgrwt>
</event>
<event>
 4    1  0.7424968E+004  0.2268060E+02  0.7546771E-02  0.1696740E+00
         21   -1    0    0  501  502  0.00000000000E+00  0.00000000000E+00  0.12125851045E+02  0.12125851045E+02  0.00000000000E+00 0. -1.
         21   -1    0    0  502  503 -0.00000000000E+00 -0.00000000000E+00 -0.42482749720E+02  0.42482749720E+02  0.00000000000E+00 0. -1.
          3    1    1    2  501    0 -0.22653607079E+02  0.11061322819E+01 -0.16206337241E+02  0.27875702844E+02  0.00000000000E+00 0.  1.
         -3    1    1    2    0  503  0.22653607079E+02 -0.11061322819E+01 -0.14150561435E+02  0.26732897921E+02  0.00000000000E+00 0. -1.
<mgrwt>
<rscale>  2 0.22680596E+02</rscale>
<asrwt>0</asrwt>
<pdfrwt beam="1">  1       21 0.18655155E-02 0.22680596E+02</pdfrwt>
<pdfrwt beam="2">  1       21 0.65358077E-02 0.22680596E+02</pdfrwt>
<totfact> 0.15469307E+08</totfact>
</mgrwt>
</event>
<event>
 4    1  0.7424968E+004  0.2135101E+02  0.7546771E-02  0.1719724E+00
         21   -1    0    0  503  502  0.00000000000E+00  0.00000000000E+00  0.88612676226E+01  0.88612676226E+01  0.00000000000E+00 0.  1.
         21   -1    0    0  501  503 -0.00000000000E+00 -0.00000000000E+00 -0.51446382682E+02  0.51446382682E+02  0.00000000000E+00 0.  1.
          5    1    1    2  501    0  0.19919726499E+02 -0.76856967875E+01 -0.21121176368E+02  0.30032807563E+02  0.00000000000E+00 0. -1.
         -5    1    1    2    0  502 -0.19919726499E+02  0.76856967875E+01 -0.21463938692E+02  0.30274842742E+02  0.00000000000E+00 0.  1.
<mgrwt>
<rscale>  2 0.21351006E+02</rscale>
<asrwt>0</asrwt>
<pdfrwt beam="1">  1       21 0.13632719E-02 0.21351006E+02</pdfrwt>
<pdfrwt beam="2">  1       21 0.79148281E-02 0.21351006E+02</pdfrwt>
<totfact> 0.17942410E+08</totfact>
</mgrwt>
</event>
<event>
 4    1  0.7424968E+004  0.2186105E+02  0.7546771E-02  0.1710666E+00
         21   -1    0    0  501  502  0.00000000000E+00  0.00000000000E+00  0.13290799907E+03  0.13290799907E+03  0.00000000000E+00 0. -1.
         21   -1    0    0  502  503 -0.00000000000E+00 -0.00000000000E+00 -0.38872843286E+01  0.38872843286E+01  0.00000000000E+00 0. -1.
          3    1    1    2  501    0 -0.17352947685E+02 -0.13295896696E+02  0.83241020748E+02  0.86063774014E+02  0.00000000000E+00 0.  1.
         -3    1    1    2    0  503  0.17352947685E+02  0.13295896696E+02  0.45779693994E+02  0.50731509385E+02  0.00000000000E+00 0. -1.
<mgrwt>
<rscale>  2 0.21861054E+02</rscale>
<asrwt>0</asrwt>
<pdfrwt beam="1">  1       21 0.20447381E-01 0.21861054E+02</pdfrwt>
<pdfrwt beam="2">  1       21 0.59804384E-03 0.21861054E+02</pdfrwt>
<totfact> 0.12573707E+08</totfact>
</mgrwt>
</event>
<event>
 4    1  0.7424968E+004  0.2125191E+02  0.7546771E-02  0.1721520E+00
         21   -1    0    0  503  502  0.00000000000E+00  0.00000000000E+00  0.11722227481E+04  0.11722227481E+04  0.00000000000E+00 0. -1.
         21   -1    0    0  501  503 -0.00000000000E+00 -0.00000000000E+00 -0.43801888631E+00  0.43801888631E+00  0.00000000000E+00 0. -1.
          2    1    1    2  501    0  0.21250678918E+02  0.22837597174E+00  0.78932844676E+03  0.78961448846E+03  0.00000000000E+00 0.  1.
         -2    1    1    2    0  502 -0.21250678918E+02 -0.22837597174E+00  0.38245628248E+03  0.38304627856E+03  0.00000000000E+00 0. -1.
<mgrwt>
<rscale>  2 0.21251906E+02</rscale>
<asrwt>0</asrwt>
<pdfrwt beam="1">  1       21 0.18033945E+00 0.21251906E+02</pdfrwt>
<pdfrwt beam="2">  1       21 0.67388459E-04 0.21251906E+02</pdfrwt>
<totfact> 0.34879090E+07</totfact>
</mgrwt>
</event>
<event>
 4    1  0.7424968E+004  0.2207869E+02  0.7546771E-02  0.1706895E+00
         21   -1    0    0  501  502  0.00000000000E+00  0.00000000000E+00  0.35483808477E+01  0.35483808477E+01  0.00000000000E+00 0.  1.
         21   -1    0    0  502  503 -0.00000000000E+00 -0.00000000000E+00 -0.15604971125E+03  0.15604971125E+03  0.00000000000E+00 0.  1.
          2    1    1    2  501    0 -0.22061087598E+02  0.88139726190E+00 -0.48647326826E+02  0.53423130332E+02  0.00000000000E+00 0. -1.
         -2    1    1    2    0  503  0.22061087598E+02 -0.88139726190E+00 -0.10385400358E+03  0.10617496177E+03  0.00000000000E+00 0.  1.
<mgrwt>
<rscale>  2 0.22078688E+02</rscale>
<asrwt>0</asrwt>
<pdfrwt beam="1">  1       21 0.54590480E-03 0.22078688E+02</pdfrwt>
<pdfrwt beam="2">  1       21 0.24007645E-01 0.22078688E+02</pdfrwt>
<totfact> 0.10880288E+08</totfact>
</mgrwt>
</event>
<event>
 4    1  0.7424968E+004  0.2173411E+02  0.7546771E-02  0.1712891E+00
         21   -1    0    0  501  502  0.00000000000E+00  0.00000000000E+00  0.34668466304E+03  0.34668466304E+03  0.00000000000E+00 0.  1.
         21   -1    0    0  502  503 -0.00000000000E+00 -0.00000000000E+00 -0.15184791329E+01  0.15184791329E+01  0.00000000000E+00 0.  1.
          1    1    1    2  501    0  0.46908145137E+01  0.21221874912E+02  0.22837559610E+03  0.22940746416E+03  0.00000000000E+00 0. -1.
         -1    1    1    2    0  503 -0.46908145137E+01 -0.21221874912E+02  0.11679058781E+03  0.11879567802E+03  0.00000000000E+00 0.  1.
<mgrwt>
<rscale>  2 0.21734114E+02</rscale>
<asrwt>0</asrwt>
<pdfrwt beam="1">  1       21 0.53336039E-01 0.21734114E+02</pdfrwt>
<pdfrwt beam="2">  1       21 0.23361245E-03 0.21734114E+02</pdfrwt>
<totfact> 0.84993640E+07</totfact>
</mgrwt>
</event>
<event>
 4    1  0.7424968E+004  0.2842387E+02  0.7546771E-02  0.1616194E+00
         21   -1    0    0  501  502  0.00000000000E+00  0.00000000000E+00  0.14586058578E+02  0.14586058578E+02  0.00000000000E+00 0. -1.
         21   -1    0    0  502  503 -0.00000000000E+00 -0.00000000000E+00 -0.59809395011E+02  0.59809395011E+02  0.00000000000E+00 0. -1.
          5    1    1    2  501    0  0.25010586411E+02  0.13505079743E+02 -0.12499820236E+02  0.31050960008E+02  0.00000000000E+00 0.  1.
         -5    1    1    2    0  503 -0.25010586411E+02 -0.13505079743E+02 -0.32723516196E+02  0.43344493580E+02  0.00000000000E+00 0. -1.
<mgrwt>
<rscale>  2 0.28423874E+02</rscale>
<asrwt>0</asrwt>
<pdfrwt beam="1">  1       21 0.22440090E-02 0.28423874E+02</pdfrwt>
<pdfrwt beam="2">  1       21 0.92014454E-02 0.28423874E+02</pdfrwt>
<totfact> 0.70712694E+07</totfact>
</mgrwt>
</event>
<event>
 4    1  0.7424968E+004  0.2284342E+02  0.7546771E-02  0.1694061E+00
         21   -1    0    0  503  502  0.00000000000E+00  0.00000000000E+00  0.64054083250E+00  0.64054083250E+00  0.00000000000E+00 0.  1.
         21   -1    0    0  501  503 -0.00000000000E+00 -0.00000000000E+00 -0.82419810785E+03  0.82419810785E+03  0.00000000000E+00 0.  1.
          2    1    1    2  501    0  0.22686344767E+02  0.26742825568E+01 -0.36740885439E+03  0.36811830749E+03  0.00000000000E+00 0. -1.
         -2    1    1    2    0  502 -0.22686344767E+02 -0.26742825568E+01 -0.45614871263E+03  0.45672034120E+03  0.00000000000E+00 0.  1.
<mgrwt>
<rscale>  2 0.22843424E+02</rscale>
<asrwt>0</asrwt>
<pdfrwt beam="1">  1       21 0.98543938E-04 0.22843424E+02</pdfrwt>
<pdfrwt beam="2">  1       21 0.12680074E+00 0.22843424E+02</pdfrwt>
<totfact> 0.47637435E+07</totfact>
</mgrwt>
</event>
<event>
 4    1  0.7424968E+004  0.2115626E+02  0.7546771E-02  0.1723266E+00
         21   -1    0    0  501  502  0.00000000000E+00  0.00000000000E+00  0.18308516686E+02  0.18308516686E+02  0.00000000000E+00 0.  1.
         21   -1    0    0  502  503 -0.00000000000E+00 -0.00000000000E+00 -0.26727286947E+02  0.26727286947E+02  0.00000000000E+00 0.  1.
          3    1    1    2  501    0  0.19776851455E+02  0.75142269597E+01 -0.10786715251E+02  0.23747435360E+02  0.00000000000E+00 0.  1.
         -3    1    1    2    0  503 -0.19776851455E+02 -0.75142269597E+01  0.23679449905E+01  0.21288368273E+02  0.00000000000E+00 0. -1.
<mgrwt>
<rscale>  2 0.21156263E+02</rscale>
<asrwt>0</asrwt>
<pdfrwt beam="1">  1       21 0.28166949E-02 0.21156263E+02</pdfrwt>
<pdfrwt beam="2">  1       21 0.41118903E-02 0.21156263E+02</pdfrwt>
<totfact> 0.16792368E+08</totfact>
</mgrwt>
</event>
<event>
 4    1  0.7424968E+004  0.2257121E+02  0.7546771E-02  0.1698556E+00
         21   -1    0    0  501  502  0.00000000000E+00  0.00000000000E+00  0.38902121548E+01  0.38902121548E+01  0.00000000000E+00 0.  1.
         21   -1    0    0  502  503 -0.00000000000E+00 -0.00000000000E+00 -0.13586655232E+03  0.13586655232E+03  0.00000000000E+00 0.  1.
          3    1    1    2  501    0  0.19235848806E+02 -0.11808549103E+02 -0.52708022271E+02  0.57337555955E+02  0.00000000000E+00 0.  1.
         -3    1    1    2    0  503 -0.19235848806E+02  0.11808549103E+02 -0.79268317896E+02  0.82419208522E+02  0.00000000000E+00 0. -1.
<mgrwt>
<rscale>  2 0.22571214E+02</rscale>
<asrwt>0</asrwt>
<pdfrwt beam="1">  1       21 0.59849420E-03 0.22571214E+02</pdfrwt>
<pdfrwt beam="2">  1       21 0.20902546E-01 0.22571214E+02</pdfrwt>
<totfact> 0.12196568E+08</totfact>
</mgrwt>
</event>
<event>
 4    1  0.7424968E+004  0.2867513E+02  0.7546771E-02  0.1613213E+00
         21   -1    0    0  501  502  0.00000000000E+00  0.00000000000E+00  0.70700410998E+00  0.70700410998E+00  0.00000000000E+00 0. -1.
         21   -1    0    0  502  503 -0.00000000000E+00 -0.00000000000E+00 -0.11691934192E+04  0.11691934192E+04  0.00000000000E+00 0. -1.
          3    1    1    2  501    0 -0.27190320732E+02 -0.91076570947E+01 -0.62673326771E+03  0.62738891592E+03  0.00000000000E+00 0. -1.
         -3    1    1    2    0  503  0.27190320732E+02  0.91076570947E+01 -0.54175314742E+03  0.54251150744E+03  0.00000000000E+00 0.  1.
<mgrwt>
<rscale>  2 0.28675128E+02</rscale>
<asrwt>0</asrwt>
<pdfrwt beam="1">  1       21 0.10877134E-03 0.28675128E+02</pdfrwt>
<pdfrwt beam="2">  1       21 0.17987347E+00 0.28675128E+02</pdfrwt>
<totfact> 0.18592197E+07</totfact>
</mgrwt>
</event>
<event>
 4    1  0.7424968E+004  0.2169953E+02  0.7546771E-02  0.1713501E+00
         21   -1    0    0  503  502  0.00000000000E+00  0.00000000000E+00  0.32206648781E+01  0.32206648781E+01  0.00000000000E+00 0. -1.
         21   -1    0    0  501  503 -0.00000000000E+00 -0.00000000000E+00 -0.16309781487E+03  0.16309781487E+03  0.00000000000E+00 0. -1.
          3    1    1    2  501    0 -0.19214539453E+02  0.10083201057E+02 -0.10670366661E+03  0.10888774925E+03  0.00000000000E+00 0.  1.
         -3    1    1    2    0  502  0.19214539453E+02 -0.10083201057E+02 -0.53173483384E+02  0.57430730495E+02  0.00000000000E+00 0. -1.
<mgrwt>
<rscale>  2 0.21699527E+02</rscale>
<asrwt>0</asrwt>
<pdfrwt beam="1">  1       21 0.49548689E-03 0.21699527E+02</pdfrwt>
<pdfrwt beam="2">  1       21 0.25091972E-01 0.21699527E+02</pdfrwt>
<totfact> 0.11547497E+08</totfact>
</mgrwt>
</event>
<event>
 4    1  0.7424968E+004  0.2286448E+02  0.7546771E-02  0.1693716E+00
         21   -1    0    0  501  502  0.00000000000E+00  0.00000000000E+00  0.42525306081E+02  0.42525306081E+02  0.00000000000E+00 0. -1.
         21   -1    0    0  502  503 -0.00000000000E+00 -0.00000000000E+00 -0.14694509480E+02  0.14694509480E+02  0.00000000000E+00 0. -1.
          1    1    1    2  501    0  0.16961204722E+02 -0.15333035877E+02  0.23506365608E+01  0.22984993954E+02  0.00000000000E+00 0.  1.
         -1    1    1    2    0  503 -0.16961204722E+02  0.15333035877E+02  0.25480160040E+02  0.34234821607E+02  0.00000000000E+00 0. -1.
<mgrwt>
<rscale>  2 0.22864480E+02</rscale>
<asrwt>0</asrwt>
<pdfrwt beam="1">  1       21 0.65423547E-02 0.22864480E+02</pdfrwt>
<pdfrwt beam="2">  1       21 0.22606938E-02 0.22864480E+02</pdfrwt>
<totfact> 0.11526970E+08</totfact>
</mgrwt>
</event>
<event>
 4    1  0.7424968E+004  0.2363507E+02  0.7546771E-02  0.1681418E+00
         21   -1    0    0  503  502  0.00000000000E+00  0.00000000000E+00  0.96846085895E+01  0.96846085895E+01  0.00000000000E+00 0. -1.
         21   -1    0    0  501  503 -0.00000000000E+00 -0.00000000000E+00 -0.68164590981E+02  0.68164590981E+02  0.00000000000E+00 0. -1.
          3    1    1    2  501    0 -0.97767521085E+01 -0.21518165971E+02 -0.13974769743E+02  0.27457431379E+02  0.00000000000E+00 0. -1.
         -3    1    1    2    0  502  0.97767521085E+01  0.21518165971E+02 -0.44505212649E+02  0.50391768191E+02  0.00000000000E+00 0.  1.
<mgrwt>
<rscale>  2 0.23635066E+02</rscale>
<asrwt>0</asrwt>
<pdfrwt beam="1">  1       21 0.14899398E-02 0.23635066E+02</pdfrwt>
<pdfrwt beam="2">  1       21 0.10486860E-01 0.23635066E+02</pdfrwt>
<totfact> 0.10180087E+08</totfact>
</mgrwt>
</event>
<event>
 4    1  0.7424968E+004  0.2981911E+02  0.7546771E-02  0.1600097E+00
         21   -1    0    0  503  502  0.00000000000E+00  0.00000000000E+00  0.69449760112E+02  0.69449760112E+02  0.00000000000E+00 0. -1.
         21   -1    0    0  501  503 -0.00000000000E+00 -0.00000000000E+00 -0.14142287019E+02  0.14142287019E+02  0.00000000000E+00 0. -1.
          5    1    1    2  501    0  0.16349659568E+02 -0.24937285334E+02  0.40514851197E+02  0.50305394694E+02  0.00000000000E+00 0. -1.
         -5    1    1    2    0  502 -0.16349659568E+02  0.24937285334E+02  0.14792621896E+02  0.33286652436E+02  0.00000000000E+00 0.  1.
<mgrwt>
<rscale>  2 0.29819114E+02</rscale>
<asrwt>0</asrwt>
<pdfrwt beam="1">  1       21 0.10684578E-01 0.29819114E+02</pdfrwt>
<pdfrwt beam="2">  1       21 0.21757365E-02 0.29819114E+02</pdfrwt>
<totfact> 0.58470640E+07</totfact>
</mgrwt>
</event>
<event>
 4    1  0.7424968E+004  0.2120248E+02  0.7546771E-02  0.1722421E+00
         21   -1    0    0  501  502  0.00000000000E+00  0.00000000000E+00  0.23558304996E+03  0.23558304996E+03  0.00000000000E+00 0.  1.
         21   -1    0    0  502  503 -0.00000000000E+00 -0.00000000000E+00 -0.22292639410E+01  0.22292639410E+01  0.00000000000E+00 0.  1.
          5    1    1    2  501    0 -0.36985045004E+01  0.20877405993E+02  0.71553292734E+02  0.74628538225E+02  0.00000000000E+00 0. -1.
         -5    1    1    2    0  503  0.36985045004E+01 -0.20877405993E+02  0.16180049328E+03  0.16318377567E+03  0.00000000000E+00 0.  1.
<mgrwt>
<rscale>  2 0.21202477E+02</rscale>
<asrwt>0</asrwt>
<pdfrwt beam="1">  1       21 0.36243526E-01 0.21202477E+02</pdfrwt>
<pdfrwt beam="2">  1       21 0.34296387E-03 0.21202477E+02</pdfrwt>
<totfact> 0.10089037E+08</totfact>
</mgrwt>
</event>
<event>
 4    1  0.7424968E+004  0.2537982E+02  0.7546771E-02  0.1655606E+00
         21   -1    0    0  503  502  0.00000000000E+00  0.00000000000E+00  0.74659873053E+01  0.74659873053E+01  0.00000000000E+00 0.  1.
         21   -1    0    0  501  503 -0.00000000000E+00 -0.00000000000E+00 -0.86613474342E+02  0.86613474342E+02  0.00000000000E+00 0.  1.
          5    1    1    2  501    0 -0.24155198678E+02  0.77885477117E+01 -0.36637251310E+02  0.44569308747E+02  0.00000000000E+00 0.  1.
         -5    1    1    2    0  502  0.24155198678E+02 -0.77885477117E+01 -0.42510235727E+02  0.49510152900E+02  0.00000000000E+00 0. -1.
<mgrwt>
<rscale>  2 0.25379817E+02</rscale>
<asrwt>0</asrwt>
<pdfrwt beam="1">  1       21 0.11486134E-02 0.25379817E+02</pdfrwt>
<pdfrwt beam="2">  1       21 0.13325150E-01 0.25379817E+02</pdfrwt>
<totfact> 0.10306116E+08</totfact>
</mgrwt>
</event>
<event>
 4    1  0.7424968E+004  0.2305336E+02  0.7546771E-02  0.1690647E+00
         21   -1    0    0  501  502  0.00000000000E+00  0.00000000000E+00  0.13793074022E+01  0.13793074022E+01  0.00000000000E+00 0.  1.
         21   -1    0    0  502  503 -0.00000000000E+00 -0.00000000000E+00 -0.38643100604E+03  0.38643100604E+03  0.00000000000E+00 0.  1.
          1    1    1    2  501    0 -0.55750748560E+01  0.22369086736E+02 -0.18207048682E+03  0.18352416645E+03  0.00000000000E+00 0. -1.
         -1    1    1    2    0  503  0.55750748560E+01 -0.22369086736E+02 -0.20298121182E+03  0.20428614699E+03  0.00000000000E+00 0.  1.
<mgrwt>
<rscale>  2 0.23053362E+02</rscale>
<asrwt>0</asrwt>
<pdfrwt beam="1">  1       21 0.21220104E-03 0.23053362E+02</pdfrwt>
<pdfrwt beam="2">  1       21 0.59450951E-01 0.23053362E+02</pdfrwt>
<totfact> 0.79993019E+07</totfact>
</mgrwt>
</event>
<event>
 4    1  0.7424968E+004  0.2087208E+02  0.7546771E-02  0.1728522E+00
         21   -1    0    0  503  502  0.00000000000E+00  0.00000000000E+00  0.26039575949E+03  0.26039575949E+03  0.00000000000E+00 0. -1.
         21   -1    0    0  501  503 -0.00000000000E+00 -0.00000000000E+00 -0.27672468257E+01  0.27672468257E+01  0.00000000000E+00 0. -1.
          3    1    1    2  501    0  0.19657302641E+02 -0.70166949675E+01  0.46071985218E+02  0.50579357225E+02  0.00000000000E+00 0.  1.
         -3    1    1    2    0  502 -0.19657302641E+02  0.70166949675E+01  0.21155652744E+03  0.21258364909E+03  0.00000000000E+00 0. -1.
<mgrwt>
<rscale>  2 0.20872076E+02</rscale>
<asrwt>0</asrwt>
<pdfrwt beam="1">  1       21 0.40060867E-01 0.20872076E+02</pdfrwt>
<pdfrwt beam="2">  1       21 0.42573049E-03 0.20872076E+02</pdfrwt>
<totfact> 0.60784540E+07</totfact>
</mgrwt>
</event>
<event>
 4    1  0.7424968E+004  0.2658582E+02  0.7546771E-02  0.1639216E+00
         21   -1    0    0  503  502  0.00000000000E+00  0.00000000000E+00  0.11966389670E+01  0.11966389670E+01  0.00000000000E+00 0.  1.
         21   -1    0    0  501  503 -0.00000000000E+00 -0.00000000000E+00 -0.73740589475E+03  0.73740589475E+03  0.00000000000E+00 0.  1.
          2    1    1    2  501    0 -0.99321836845E+01 -0.24660848614E+02 -0.53284944770E+03  0.53351226757E+03  0.00000000000E+00 0.  1.
         -2    1    1    2    0  502  0.99321836845E+01  0.24660848614E+02 -0.20335980808E+03  0.20509026615E+03  0.00000000000E+00 0. -1.
<mgrwt>
<rscale>  2 0.26585818E+02</rscale>
<asrwt>0</asrwt>
<pdfrwt beam="1">  1       21 0.18409819E-03 0.26585818E+02</pdfrwt>
<pdfrwt beam="2">  1       21 0.11344713E+00 0.26585818E+02</pdfrwt>
<totfact> 0.25751402E+07</totfact>
</mgrwt>
</event>
<event>
 4    1  0.7424968E+004  0.3041146E+02  0.7546771E-02  0.1593585E+00
         21   -1    0    0  503  502  0.00000000000E+00  0.00000000000E+00  0.12654614513E+02  0.12654614513E+02  0.00000000000E+00 0. -1.
         21   -1    0    0  501  503 -0.00000000000E+00 -0.00000000000E+00 -0.87398392472E+02  0.87398392472E+02  0.00000000000E+00 0. -1.
          2    1    1    2  501    0 -0.30360252180E+02  0.17641399104E+01 -0.17126496966E+02  0.34902349497E+02  0.00000000000E+00 0.  1.
         -2    1    1    2    0  502  0.30360252180E+02 -0.17641399104E+01 -0.57617280993E+02  0.65150657488E+02  0.00000000000E+00 0. -1.
<mgrwt>
<rscale>  2 0.30411463E+02</rscale>
<asrwt>0</asrwt>
<pdfrwt beam="1">  1       21 0.19468638E-02 0.30411463E+02</pdfrwt>
<pdfrwt beam="2">  1       21 0.13445907E-01 0.30411463E+02</pdfrwt>
<totfact> 0.47276612E+07</totfact>
</mgrwt>
</event>
<event>
 4    1  0.7424968E+004  0.2242175E+02  0.7546771E-02  0.1701059E+00
         21   -1    0    0  503  502  0.00000000000E+00  0.00000000000E+00  0.51714157961E+01  0.51714157961E+01  0.00000000000E+00 0. -1.
         21   -1    0    0  501  503 -0.00000000000E+00 -0.00000000000E+00 -0.10466577024E+03  0.10466577024E+03  0.00000000000E+00 0. -1.
          2    1    1    2  501    0 -0.14363337682E+02  0.17217123677E+02 -0.35093646644E+02  0.41644913877E+02  0.00000000000E+00 0.  1.
         -2    1    1    2    0  502  0.14363337682E+02 -0.17217123677E+02 -0.64400707804E+02  0.68192272163E+02  0.00000000000E+00 0. -1.
<mgrwt>
<rscale>  2 0.22421749E+02</rscale>
<asrwt>0</asrwt>
<pdfrwt beam="1">  1       21 0.79560249E-03 0.22421749E+02</pdfrwt>
<pdfrwt beam="2">  1       21 0.16102425E-01 0.22421749E+02</pdfrwt>
<totfact> 0.12523154E+08</totfact>
</mgrwt>
</event>
<event>
 4    1  0.7424968E+004  0.2098408E+02  0.7546771E-02  0.1726438E+00
         21   -1    0    0  501  502  0.00000000000E+00  0.00000000000E+00  0.57912939398E+00  0.57912939398E+00  0.00000000000E+00 0.  1.
         21   -1    0    0  502  503 -0.00000000000E+00 -0.00000000000E+00 -0.76086200894E+03  0.76086200894E+03  0.00000000000E+00 0.  1.
          2    1    1    2  501    0 -0.48567899423E+01  0.20414290985E+02 -0.37011068876E+03  0.37070507633E+03  0.00000000000E+00 0.  1.
         -2    1    1    2    0  503  0.48567899423E+01 -0.20414290985E+02 -0.39017219079E+03  0.39073606201E+03  0.00000000000E+00 0. -1.
<mgrwt>
<rscale>  2 0.20984082E+02</rscale>
<asrwt>0</asrwt>
<pdfrwt beam="1">  1       21 0.89097132E-04 0.20984082E+02</pdfrwt>
<pdfrwt beam="2">  1       21 0.11705530E+00 0.20984082E+02</pdfrwt>
<totfact> 0.64672422E+07</totfact>
</mgrwt>
</event>
<event>
 4    1  0.7424968E+004  0.2356535E+02  0.7546771E-02  0.1682507E+00
         21   -1    0    0  503  502  0.00000000000E+00  0.00000000000E+00  0.13615521917E+02  0.13615521917E+02  0.00000000000E+00 0. -1.
         21   -1    0    0  501  503 -0.00000000000E+00 -0.00000000000E+00 -0.67325542001E+02  0.67325542001E+02  0.00000000000E+00 0. -1.
          2    1    1    2  501    0 -0.22365371906E+02 -0.74239982748E+01 -0.52264382106E+02  0.57331415889E+02  0.00000000000E+00 0. -1.
         -2    1    1    2    0  502  0.22365371906E+02  0.74239982748E+01 -0.14456379784E+01  0.23609648029E+02  0.00000000000E+00 0.  1.
<mgrwt>
<rscale>  2 0.23565348E+02</rscale>
<asrwt>0</asrwt>
<pdfrwt beam="1">  1       21 0.20946956E-02 0.23565348E+02</pdfrwt>
<pdfrwt beam="2">  1       21 0.10357776E-01 0.23565348E+02</pdfrwt>
<totfact> 0.61664071E+07</totfact>
</mgrwt>
</event>
<event>
 4    1  0.7424968E+004  0.2534585E+02  0.7546771E-02  0.1656083E+00
         21   -1    0    0  503  502  0.00000000000E+00  0.00000000000E+00  0.34540727370E+03  0.34540727370E+03  0.00000000000E+00 0. -1.
         21   -1    0    0  501  503 -0.00000000000E+00 -0.00000000000E+00 -0.25676061268E+01  0.25676061268E+01  0.00000000000E+00 0. -1.
          5    1    1    2  501    0  0.72176151451E+00 -0.25335571874E+02  0.80073776084E+02  0.83989414561E+02  0.00000000000E+00 0.  1.
         -5    1    1    2    0  502 -0.72176151451E+00  0.25335571874E+02  0.26276589149E+03  0.26398546527E+03  0.00000000000E+00 0. -1.
<mgrwt>
<rscale>  2 0.25345851E+02</rscale>
<asrwt>0</asrwt>
<pdfrwt beam="1">  1       21 0.53139544E-01 0.25345851E+02</pdfrwt>
<pdfrwt beam="2">  1       21 0.39501660E-03 0.25345851E+02</pdfrwt>
<totfact> 0.41267860E+07</totfact>
</mgrwt>
</event>
<event>
 4    1  0.7424968E+004  0.2116996E+02  0.7546771E-02  0.1723015E+00
         21   -1    0    0  501  502  0.00000000000E+00  0.00000000000E+00  0.26370805420E+02  0.26370805420E+02  0.00000000000E+00 0.  1.
         21   -1    0    0  502  503 -0.00000000000E+00 -0.00000000000E+00 -0.23131716160E+02  0.23131716160E+02  0.00000000000E+00 0.  1.
          2    1    1    2  501    0 -0.17349249509E+02  0.12131403132E+02  0.14368287779E+02  0.25585446922E+02  0.00000000000E+00 0. -1.
         -2    1    1    2    0  503  0.17349249509E+02 -0.12131403132E+02 -0.11129198519E+02  0.23917074658E+02  0.00000000000E+00 0.  1.
<mgrwt>
<rscale>  2 0.21169965E+02</rscale>
<asrwt>0</asrwt>
<pdfrwt beam="1">  1       21 0.40570470E-02 0.21169965E+02</pdfrwt>
<pdfrwt beam="2">  1       21 0.35587256E-02 0.21169965E+02</pdfrwt>
<totfact> 0.11923110E+08</totfact>
</mgrwt>
</event>
<event>
 4    1  0.7424968E+004  0.2106275E+02  0.7546771E-02  0.1724984E+00
         21   -1    0    0  503  502  0.00000000000E+00  0.00000000000E+00  0.47354940413E+03  0.47354940413E+03  0.00000000000E+00 0.  1.
         21   -1    0    0  501  503 -0.00000000000E+00 -0.00000000000E+00 -0.10141547150E+01  0.10141547150E+01  0.00000000000E+00 0.  1.
          1    1    1    2  501    0 -0.92052929116E+01 -0.18944705042E+02  0.17075155246E+03  0.17204572629E+03  0.00000000000E+00 0. -1.
         -1    1    1    2    0  502  0.92052929116E+01  0.18944705042E+02  0.30178369695E+03  0.30251783255E+03  0.00000000000E+00 0.  1.
<mgrwt>
<rscale>  2 0.21062746E+02</rscale>
<asrwt>0</asrwt>
<pdfrwt beam="1">  1       21 0.72853578E-01 0.21062746E+02</pdfrwt>
<pdfrwt beam="2">  1       21 0.15602418E-03 0.21062746E+02</pdfrwt>
<totfact> 0.80639825E+07</totfact>
</mgrwt>
</event>
<event>
 4    1  0.7424968E+004  0.2822309E+02  0.7546771E-02  0.1618603E+00
         21   -1    0    0  501  502  0.00000000000E+00  0.00000000000E+00  0.57942549090E+02  0.57942549090E+02  0.00000000000E+00 0.  1.
         21   -1    0    0  502  503 -0.00000000000E+00 -0.00000000000E+00 -0.13962676713E+02  0.13962676713E+02  0.00000000000E+00 0.  1.
          1    1    1    2  501    0 -0.20592921076E+02 -0.19299599549E+02  0.17522781760E+02  0.33220337473E+02  0.00000000000E+00 0. -1.
         -1    1    1    2    0  503  0.20592921076E+02  0.19299599549E+02  0.26457090617E+02  0.38684888330E+02  0.00000000000E+00 0.  1.
<mgrwt>
<rscale>  2 0.28223092E+02</rscale>
<asrwt>0</asrwt>
<pdfrwt beam="1">  1       21 0.89142381E-02 0.28223092E+02</pdfrwt>
<pdfrwt beam="2">  1       21 0.21481042E-02 0.28223092E+02</pdfrwt>
<totfact> 0.79613740E+07</totfact>
</mgrwt>
</event>
<event>
 4    1  0.7424968E+004  0.2385304E+02  0.7546771E-02  0.1678044E+00
         21   -1    0    0  501  502  0.00000000000E+00  0.00000000000E+00  0.19582019634E+03  0.19582019634E+03  0.00000000000E+00 0. -1.
         21   -1    0    0  502  503 -0.00000000000E+00 -0.00000000000E+00 -0.52448808903E+01  0.52448808903E+01  0.00000000000E+00 0. -1.
          3    1    1    2  501    0 -0.99403130903E+01  0.21683122314E+02  0.16242800719E+03  0.16417011037E+03  0.00000000000E+00 0. -1.
         -3    1    1    2    0  503  0.99403130903E+01 -0.21683122314E+02  0.28147308253E+02  0.36894966859E+02  0.00000000000E+00 0.  1.
<mgrwt>
<rscale>  2 0.23853042E+02</rscale>
<asrwt>0</asrwt>
<pdfrwt beam="1">  1       21 0.30126178E-01 0.23853042E+02</pdfrwt>
<pdfrwt beam="2">  1       21 0.80690490E-03 0.23853042E+02</pdfrwt>
<totfact> 0.41309900E+07</totfact>
</mgrwt>
</event>
<event>
 4    1  0.7424968E+004  0.3137410E+02  0.7546771E-02  0.1583378E+00
         21   -1    0    0  501  502  0.00000000000E+00  0.00000000000E+00  0.31813062588E+01  0.31813062588E+01  0.00000000000E+00 0.  1.
         21   -1    0    0  502  503 -0.00000000000E+00 -0.00000000000E+00 -0.44502854130E+03  0.44502854130E+03  0.00000000000E+00 0.  1.
          3    1    1    2  501    0  0.29114698056E+02 -0.11690535257E+02 -0.34463618944E+03  0.34606132018E+03  0.00000000000E+00 0. -1.
         -3    1    1    2    0  503 -0.29114698056E+02  0.11690535257E+02 -0.97211045602E+02  0.10214852737E+03  0.00000000000E+00 0.  1.
<mgrwt>
<rscale>  2 0.31374102E+02</rscale>
<asrwt>0</asrwt>
<pdfrwt beam="1">  1       21 0.48943169E-03 0.31374102E+02</pdfrwt>
<pdfrwt beam="2">  1       21 0.68465935E-01 0.31374102E+02</pdfrwt>
<totfact> 0.18750064E+07</totfact>
</mgrwt>
</event>
<event>
 4    1  0.7424968E+004  0.2180183E+02  0.7546771E-02  0.1711702E+00
         21   -1    0    0  501  502  0.00000000000E+00  0.00000000000E+00  0.22928101140E+02  0.22928101140E+02  0.00000000000E+00 0.  1.
         21   -1    0    0  502  503 -0.00000000000E+00 -0.00000000000E+00 -0.25054631414E+02  0.25054631414E+02  0.00000000000E+00 0.  1.
          3    1    1    2  501    0 -0.21398939513E+02 -0.41719395658E+01  0.89032051746E+01  0.23549665696E+02  0.00000000000E+00 0. -1.
         -3    1    1    2    0  503  0.21398939513E+02  0.41719395658E+01 -0.11029735449E+02  0.24433066858E+02  0.00000000000E+00 0.  1.
<mgrwt>
<rscale>  2 0.21801828E+02</rscale>
<asrwt>0</asrwt>
<pdfrwt beam="1">  1       21 0.35274002E-02 0.21801828E+02</pdfrwt>
<pdfrwt beam="2">  1       21 0.38545587E-02 0.21801828E+02</pdfrwt>
<totfact> 0.13218172E+08</totfact>
</mgrwt>
</event>
<event>
 4    1  0.7424968E+004  0.2002156E+02  0.7546771E-02  0.1744900E+00
         21   -1    0    0  501  502  0.00000000000E+00  0.00000000000E+00  0.29479550946E+01  0.29479550946E+01  0.00000000000E+00 0.  1.
         21   -1    0    0  502  503 -0.00000000000E+00 -0.00000000000E+00 -0.28043689028E+03  0.28043689028E+03  0.00000000000E+00 0.  1.
          4    1    1    2  501    0 -0.52374982915E+01  0.19324372583E+02 -0.37049778711E+02  0.42113523560E+02  0.00000000000E+00 0.  1.
         -4    1    1    2    0  503  0.52374982915E+01 -0.19324372583E+02 -0.24043915647E+03  0.24127132181E+03  0.00000000000E+00 0. -1.
<mgrwt>
<rscale>  2 0.20021557E+02</rscale>
<asrwt>0</asrwt>
<pdfrwt beam="1">  1       21 0.45353133E-03 0.20021557E+02</pdfrwt>
<pdfrwt beam="2">  1       21 0.43144159E-01 0.20021557E+02</pdfrwt>
<totfact> 0.47673760E+07</totfact>
</mgrwt>
</event>
<event>
 4    1  0.7424968E+004  0.3207801E+02  0.7546771E-02  0.1576193E+00
         21   -1    0    0  503  502  0.00000000000E+00  0.00000000000E+00  0.69740024961E+01  0.69740024961E+01  0.00000000000E+00 0. -1.
         21   -1    0    0  501  503 -0.00000000000E+00 -0.00000000000E+00 -0.18628311866E+03  0.18628311866E+03  0.00000000000E+00 0. -1.
          4    1    1    2  501    0 -0.23778107310E+00  0.32077129336E+02 -0.13371737864E+03  0.13751122179E+03  0.00000000000E+00 0.  1.
         -4    1    1    2    0  502  0.23778107310E+00 -0.32077129336E+02 -0.45591737520E+02  0.55745899368E+02  0.00000000000E+00 0. -1.
<mgrwt>
<rscale>  2 0.32078011E+02</rscale>
<asrwt>0</asrwt>
<pdfrwt beam="1">  1       21 0.10729233E-02 0.32078011E+02</pdfrwt>
<pdfrwt beam="2">  1       21 0.28658946E-01 0.32078011E+02</pdfrwt>
<totfact> 0.31327944E+07</totfact>
</mgrwt>
</event>
<event>
 4    1  0.7424968E+004  0.2010653E+02  0.7546771E-02  0.1743218E+00
         21   -1    0    0  501  502  0.00000000000E+00  0.00000000000E+00  0.48502913412E+02  0.48502913412E+02  0.00000000000E+00 0. -1.
         21   -1    0    0  502  503 -0.00000000000E+00 -0.00000000000E+00 -0.10319000076E+02  0.10319000076E+02  0.00000000000E+00 0. -1.
          2    1    1    2  501    0 -0.11989472847E+02 -0.16140786478E+02  0.31988095163E+02  0.37782412303E+02  0.00000000000E+00 0. -1.
         -2    1    1    2    0  503  0.11989472847E+02  0.16140786478E+02  0.61958181721E+01  0.21039501185E+02  0.00000000000E+00 0.  1.
<mgrwt>
<rscale>  2 0.20106527E+02</rscale>
<asrwt>0</asrwt>
<pdfrwt beam="1">  1       21 0.74619865E-02 0.20106527E+02</pdfrwt>
<pdfrwt beam="2">  1       21 0.15875385E-02 0.20106527E+02</pdfrwt>
<totfact> 0.15383631E+08</totfact>
</mgrwt>
</event>
<event>
 4    1  0.7424968E+004  0.2141353E+02  0.7546771E-02  0.1718597E+00
         21   -1    0    0  503  502  0.00000000000E+00  0.00000000000E+00  0.17976670283E+02  0.17976670283E+02  0.00000000000E+00 0. -1.
         21   -1    0    0  501  503 -0.00000000000E+00 -0.00000000000E+00 -0.26226199988E+02  0.26226199988E+02  0.00000000000E+00 0. -1.
          5    1    1    2  501    0  0.11110466672E+02  0.18305653389E+02 -0.77835342617E+01  0.22784266968E+02  0.00000000000E+00 0. -1.
         -5    1    1    2    0  502 -0.11110466672E+02 -0.18305653389E+02 -0.46599544370E+00  0.21418603302E+02  0.00000000000E+00 0.  1.
<mgrwt>
<rscale>  2 0.21413533E+02</rscale>
<asrwt>0</asrwt>
<pdfrwt beam="1">  1       21 0.27656416E-02 0.21413533E+02</pdfrwt>
<pdfrwt beam="2">  1       21 0.40348000E-02 0.21413533E+02</pdfrwt>
<totfact> 0.17864273E+08</totfact>
</mgrwt>
</event>
<event>
 4    1  0.7424968E+004  0.2198001E+02  0.7546771E-02  0.1708598E+00
         21   -1    0    0  501  502  0.00000000000E+00  0.00000000000E+00  0.15718108364E+02  0.15718108364E+02  0.00000000000E+00 0. -1.
         21   -1    0    0  502  503 -0.00000000000E+00 -0.00000000000E+00 -0.31478651232E+02  0.31478651232E+02  0.00000000000E+00 0. -1.
          4    1    1    2  501    0 -0.48730821971E+01 -0.21433008240E+02 -0.42570138224E+01  0.22388455485E+02  0.00000000000E+00 0. -1.
         -4    1    1    2    0  503  0.48730821971E+01  0.21433008240E+02 -0.11503529046E+02  0.24808304110E+02  0.00000000000E+00 0.  1.
<mgrwt>
<rscale>  2 0.21980008E+02</rscale>
<asrwt>0</asrwt>
<pdfrwt beam="1">  1       21 0.24181705E-02 0.21980008E+02</pdfrwt>
<pdfrwt beam="2">  1       21 0.48428694E-02 0.21980008E+02</pdfrwt>
<totfact> 0.16611889E+08</totfact>
</mgrwt>
</event>
<event>
 4    1  0.7424968E+004  0.2080071E+02  0.7546771E-02  0.1729858E+00
         21   -1    0    0  503  502  0.00000000000E+00  0.00000000000E+00  0.15332425379E+02  0.15332425379E+02  0.00000000000E+00 0.  1.
         21   -1    0    0  501  503 -0.00000000000E+00 -0.00000000000E+00 -0.32497638362E+02  0.32497638362E+02  0.00000000000E+00 0.  1.
          1    1    1    2  501    0 -0.18035287177E+01 -0.20722372167E+02 -0.17259925529E+02  0.27029140817E+02  0.00000000000E+00 0. -1.
         -1    1    1    2    0  502  0.18035287177E+01  0.20722372167E+02  0.94712545728E-01  0.20800922925E+02  0.00000000000E+00 0.  1.
<mgrwt>
<rscale>  2 0.20800707E+02</rscale>
<asrwt>0</asrwt>
<pdfrwt beam="1">  1       21 0.23588347E-02 0.20800707E+02</pdfrwt>
<pdfrwt beam="2">  1       21 0.49996367E-02 0.20800707E+02</pdfrwt>
<totfact> 0.16129211E+08</totfact>
</mgrwt>
</event>
<event>
 4    1  0.7424968E+004  0.3301379E+02  0.7546771E-02  0.1566981E+00
         21   -1    0    0  501  502  0.00000000000E+00  0.00000000000E+00  0.33135900530E+01  0.33135900530E+01  0.00000000000E+00 0.  1.
         21   -1    0    0  502  503 -0.00000000000E+00 -0.00000000000E+00 -0.38442468715E+03  0.38442468715E+03  0.00000000000E+00 0.  1.
          2    1    1    2  501    0 -0.19287588780E+02  0.26793635836E+02 -0.11689020857E+03  0.12146287854E+03  0.00000000000E+00 0. -1.
         -2    1    1    2    0  503  0.19287588780E+02 -0.26793635836E+02 -0.26422088852E+03  0.26627539867E+03  0.00000000000E+00 0.  1.
<mgrwt>
<rscale>  2 0.33013785E+02</rscale>
<asrwt>0</asrwt>
<pdfrwt beam="1">  1       21 0.50978359E-03 0.33013785E+02</pdfrwt>
<pdfrwt beam="2">  1       21 0.59142201E-01 0.33013785E+02</pdfrwt>
<totfact> 0.24009004E+07</totfact>
</mgrwt>
</event>
<event>
 4    1  0.7424968E+004  0.2432795E+02  0.7546771E-02  0.1670847E+00
         21   -1    0    0  501  502  0.00000000000E+00  0.00000000000E+00  0.38743117204E+03  0.38743117204E+03  0.00000000000E+00 0.  1.
         21   -1    0    0  502  503 -0.00000000000E+00 -0.00000000000E+00 -0.15837751469E+01  0.15837751469E+01  0.00000000000E+00 0.  1.
          4    1    1    2  501    0  0.45795444716E+01  0.23893034385E+02  0.15629957660E+03  0.15818156330E+03  0.00000000000E+00 0. -1.
         -4    1    1    2    0  503 -0.45795444716E+01 -0.23893034385E+02  0.22954782028E+03  0.23083338389E+03  0.00000000000E+00 0.  1.
<mgrwt>
<rscale>  2 0.24327953E+02</rscale>
<asrwt>0</asrwt>
<pdfrwt beam="1">  1       21 0.59604720E-01 0.24327953E+02</pdfrwt>
<pdfrwt beam="2">  1       21 0.24365802E-03 0.24327953E+02</pdfrwt>
<totfact> 0.65985189E+07</totfact>
</mgrwt>
</event>
<event>
 4    1  0.7424968E+004  0.3850110E+02  0.7546771E-02  0.1519541E+00
         21   -1    0    0  501  502  0.00000000000E+00  0.00000000000E+00  0.58329655537E+02  0.58329655537E+02  0.00000000000E+00 0. -1.
         21   -1    0    0  502  503 -0.00000000000E+00 -0.00000000000E+00 -0.33986783287E+02  0.33986783287E+02  0.00000000000E+00 0. -1.
          1    1    1    2  501    0  0.12320951275E+02  0.36476418849E+02  0.35354924023E+02  0.52271460904E+02  0.00000000000E+00 0.  1.
         -1    1    1    2    0  503 -0.12320951275E+02 -0.36476418849E+02 -0.11012051773E+02  0.40044977920E+02  0.00000000000E+00 0. -1.
<mgrwt>
<rscale>  2 0.38501104E+02</rscale>
<asrwt>0</asrwt>
<pdfrwt beam="1">  1       21 0.89737932E-02 0.38501104E+02</pdfrwt>
<pdfrwt beam="2">  1       21 0.52287359E-02 0.38501104E+02</pdfrwt>
<totfact> 0.20466129E+07</totfact>
</mgrwt>
</event>
<event>
 4    1  0.7424968E+004  0.2274075E+02  0.7546771E-02  0.1695747E+00
         21   -1    0    0  503  502  0.00000000000E+00  0.00000000000E+00  0.14022806179E+03  0.14022806179E+03  0.00000000000E+00 0. -1.
         21   -1    0    0  501  503 -0.00000000000E+00 -0.00000000000E+00 -0.48870393998E+01  0.48870393998E+01  0.00000000000E+00 0. -1.
          2    1    1    2  501    0  0.21817746720E+02  0.64130785033E+01  0.31728569926E+02  0.39036441915E+02  0.00000000000E+00 0. -1.
         -2    1    1    2    0  502 -0.21817746720E+02 -0.64130785033E+01  0.10361245246E+03  0.10607865927E+03  0.00000000000E+00 0.  1.
<mgrwt>
<rscale>  2 0.22740749E+02</rscale>
<asrwt>0</asrwt>
<pdfrwt beam="1">  1       21 0.21573545E-01 0.22740749E+02</pdfrwt>
<pdfrwt beam="2">  1       21 0.75185232E-03 0.22740749E+02</pdfrwt>
<totfact> 0.82402542E+07</totfact>
</mgrwt>
</event>
<event>
 4    1  0.7424968E+004  0.2356287E+02  0.7546771E-02  0.1682545E+00
         21   -1    0    0  503  502  0.00000000000E+00  0.00000000000E+00  0.85186222313E+00  0.85186222313E+00  0.00000000000E+00 0.  1.
         21   -1    0    0  501  503 -0.00000000000E+00 -0.00000000000E+00 -0.68912680987E+03  0.68912680987E+03  0.00000000000E+00 0.  1.
          5    1    1    2  501    0  0.74915035915E+01 -0.22340236221E+02 -0.26380233744E+03  0.26485256657E+03  0.00000000000E+00 0.  1.
         -5    1    1    2    0  502 -0.74915035915E+01  0.22340236221E+02 -0.42447261020E+03  0.42512610552E+03  0.00000000000E+00 0. -1.
<mgrwt>
<rscale>  2 0.23562869E+02</rscale>
<asrwt>0</asrwt>
<pdfrwt beam="1">  1       21 0.13105573E-03 0.23562869E+02</pdfrwt>
<pdfrwt beam="2">  1       21 0.10601950E+00 0.23562869E+02</pdfrwt>
<totfact> 0.47748907E+07</totfact>
</mgrwt>
</event>
<event>
 4    1  0.7424968E+004  0.3140139E+02  0.7546771E-02  0.1583095E+00
         21   -1    0    0  503  502  0.00000000000E+00  0.00000000000E+00  0.12537215340E+01  0.12537215340E+01  0.00000000000E+00 0. -1.
         21   -1    0    0  501  503 -0.00000000000E+00 -0.00000000000E+00 -0.79586534693E+03  0.79586534693E+03  0.00000000000E+00 0. -1.
          3    1    1    2  501    0 -0.30739577164E+02 -0.64129383226E+01 -0.44054927672E+03  0.44166697024E+03  0.00000000000E+00 0.  1.
         -3    1    1    2    0  502  0.30739577164E+02  0.64129383226E+01 -0.35406234868E+03  0.35545209823E+03  0.00000000000E+00 0. -1.
<mgrwt>
<rscale>  2 0.31401391E+02</rscale>
<asrwt>0</asrwt>
<pdfrwt beam="1">  1       21 0.19288051E-03 0.31401391E+02</pdfrwt>
<pdfrwt beam="2">  1       21 0.12244065E+00 0.31401391E+02</pdfrwt>
<totfact> 0.20770127E+07</totfact>
</mgrwt>
</event>
<event>
 4    1  0.7424968E+004  0.2046518E+02  0.7546771E-02  0.1736233E+00
         21   -1    0    0  501  502  0.00000000000E+00  0.00000000000E+00  0.67631067013E+02  0.67631067013E+02  0.00000000000E+00 0. -1.
         21   -1    0    0  502  503 -0.00000000000E+00 -0.00000000000E+00 -0.67625090446E+01  0.67625090446E+01  0.00000000000E+00 0. -1.
          4    1    1    2  501    0  0.14626372714E+02  0.14314071452E+02  0.19637585896E+02  0.28362972343E+02  0.00000000000E+00 0.  1.
         -4    1    1    2    0  503 -0.14626372714E+02 -0.14314071452E+02  0.41230972071E+02  0.46030603714E+02  0.00000000000E+00 0. -1.
<mgrwt>
<rscale>  2 0.20465176E+02</rscale>
<asrwt>0</asrwt>
<pdfrwt beam="1">  1       21 0.10404779E-01 0.20465176E+02</pdfrwt>
<pdfrwt beam="2">  1       21 0.10403861E-02 0.20465176E+02</pdfrwt>
<totfact> 0.16989401E+08</totfact>
</mgrwt>
</event>
<event>
 4    1  0.7424968E+004  0.2938338E+02  0.7546771E-02  0.1605006E+00
         21   -1    0    0  501  502  0.00000000000E+00  0.00000000000E+00  0.64080962696E+02  0.64080962696E+02  0.00000000000E+00 0. -1.
         21   -1    0    0  502  503 -0.00000000000E+00 -0.00000000000E+00 -0.16717895375E+02  0.16717895375E+02  0.00000000000E+00 0. -1.
          1    1    1    2  501    0 -0.59039284804E+01 -0.28784134509E+02  0.58838317236E+01  0.29966685614E+02  0.00000000000E+00 0.  1.
         -1    1    1    2    0  503  0.59039284804E+01  0.28784134509E+02  0.41479235597E+02  0.50832172457E+02  0.00000000000E+00 0. -1.
<mgrwt>
<rscale>  2 0.29383376E+02</rscale>
<asrwt>0</asrwt>
<pdfrwt beam="1">  1       21 0.98586095E-02 0.29383376E+02</pdfrwt>
<pdfrwt beam="2">  1       21 0.25719839E-02 0.29383376E+02</pdfrwt>
<totfact> 0.51383975E+07</totfact>
</mgrwt>
</event>
<event>
 4    1  0.7424968E+004  0.2000683E+02  0.7546771E-02  0.1745192E+00
         21   -1    0    0  503  502  0.00000000000E+00  0.00000000000E+00  0.66041777005E+03  0.66041777005E+03  0.00000000000E+00 0.  1.
         21   -1    0    0  501  503 -0.00000000000E+00 -0.00000000000E+00 -0.64487746020E+00  0.64487746020E+00  0.00000000000E+00 0.  1.
          4    1    1    2  501    0  0.17673501388E+02 -0.93765878166E+01  0.41094818792E+03  0.41143491126E+03  0.00000000000E+00 0. -1.
         -4    1    1    2    0  502 -0.17673501388E+02  0.93765878166E+01  0.24882470467E+03  0.24962773625E+03  0.00000000000E+00 0.  1.
<mgrwt>
<rscale>  2 0.20006825E+02</rscale>
<asrwt>0</asrwt>
<pdfrwt beam="1">  1       21 0.10160219E+00 0.20006825E+02</pdfrwt>
<pdfrwt beam="2">  1       21 0.99212445E-04 0.20006825E+02</pdfrwt>
<totfact> 0.75070935E+07</totfact>
</mgrwt>
</event>
<event>
 4    1  0.7424968E+004  0.2220414E+02  0.7546771E-02  0.1704745E+00
         21   -1    0    0  503  502  0.00000000000E+00  0.00000000000E+00  0.23505577567E+03  0.23505577567E+03  0.00000000000E+00 0.  1.
         21   -1    0    0  501  503 -0.00000000000E+00 -0.00000000000E+00 -0.23645147287E+01  0.23645147287E+01  0.00000000000E+00 0.  1.
          4    1    1    2  501    0  0.86938372428E+01  0.20431378392E+02  0.76452021677E+02  0.79611152783E+02  0.00000000000E+00 0. -1.
         -4    1    1    2    0  502 -0.86938372428E+01 -0.20431378392E+02  0.15623923927E+03  0.15780913762E+03  0.00000000000E+00 0.  1.
<mgrwt>
<rscale>  2 0.22204144E+02</rscale>
<asrwt>0</asrwt>
<pdfrwt beam="1">  1       21 0.36162408E-01 0.22204144E+02</pdfrwt>
<pdfrwt beam="2">  1       21 0.36377168E-03 0.22204144E+02</pdfrwt>
<totfact> 0.94129592E+07</totfact>
</mgrwt>
</event>
<event>
 4    1  0.7424968E+004  0.2232790E+02  0.7546771E-02  0.1702642E+00
         21   -1    0    0  501  502  0.00000000000E+00  0.00000000000E+00  0.60704577026E+02  0.60704577026E+02  0.00000000000E+00 0.  1.
         21   -1    0    0  502  503 -0.00000000000E+00 -0.00000000000E+00 -0.87187750777E+01  0.87187750777E+01  0.00000000000E+00 0.  1.
          2    1    1    2  501    0 -0.15171557031E+02  0.16381659740E+02  0.17628185824E+02  0.28447985061E+02  0.00000000000E+00 0.  1.
         -2    1    1    2    0  503  0.15171557031E+02 -0.16381659740E+02  0.34357616124E+02  0.40975367043E+02  0.00000000000E+00 0. -1.
<mgrwt>
<rscale>  2 0.22327896E+02</rscale>
<asrwt>0</asrwt>
<pdfrwt beam="1">  1       21 0.93391654E-02 0.22327896E+02</pdfrwt>
<pdfrwt beam="2">  1       21 0.13413501E-02 0.22327896E+02</pdfrwt>
<totfact> 0.14222503E+08</totfact>
</mgrwt>
</event>
<event>
 4    1  0.7424968E+004  0.4725582E+02  0.7546771E-02  0.1460731E+00
         21   -1    0    0  501  502  0.00000000000E+00  0.00000000000E+00  0.71518908310E+01  0.71518908310E+01  0.00000000000E+00 0. -1.
         21   -1    0    0  502  503 -0.00000000000E+00 -0.00000000000E+00 -0.31290255064E+03  0.31290255064E+03  0.00000000000E+00 0. -1.
          5    1    1    2  501    0 -0.38296951733E+02 -0.27684947742E+02 -0.16023406298E+03  0.16705707941E+03  0.00000000000E+00 0.  1.
         -5    1    1    2    0  503  0.38296951733E+02  0.27684947742E+02 -0.14551659683E+03  0.15299736205E+03  0.00000000000E+00 0. -1.
<mgrwt>
<rscale>  2 0.47255823E+02</rscale>
<asrwt>0</asrwt>
<pdfrwt beam="1">  1       21 0.11002912E-02 0.47255823E+02</pdfrwt>
<pdfrwt beam="2">  1       21 0.48138840E-01 0.47255823E+02</pdfrwt>
<totfact> 0.11887963E+07</totfact>
</mgrwt>
</event>
<event>
 4    1  0.7424968E+004  0.4134740E+02  0.7546771E-02  0.1498524E+00
         21   -1    0    0  501  502  0.00000000000E+00  0.00000000000E+00  0.35391685330E+03  0.35391685330E+03  0.00000000000E+00 0.  1.
         21   -1    0    0  502  503 -0.00000000000E+00 -0.00000000000E+00 -0.71907563379E+01  0.71907563379E+01  0.00000000000E+00 0.  1.
          5    1    1    2  501    0 -0.41347311399E+02 -0.84090385252E-01  0.69921298609E+02  0.81231737826E+02  0.00000000000E+00 0. -1.
         -5    1    1    2    0  503  0.41347311399E+02  0.84090385252E-01  0.27680479835E+03  0.27987587181E+03  0.00000000000E+00 0.  1.
<mgrwt>
<rscale>  2 0.41347397E+02</rscale>
<asrwt>0</asrwt>
<pdfrwt beam="1">  1       21 0.54448733E-01 0.41347397E+02</pdfrwt>
<pdfrwt beam="2">  1       21 0.11062705E-02 0.41347397E+02</pdfrwt>
<totfact> 0.90692083E+06</totfact>
</mgrwt>
</event>
<event>
 4    1  0.7424968E+004  0.2121933E+02  0.7546771E-02  0.1722114E+00
         21   -1    0    0  501  502  0.00000000000E+00  0.00000000000E+00  0.18895017207E+03  0.18895017207E+03  0.00000000000E+00 0.  1.
         21   -1    0    0  502  503 -0.00000000000E+00 -0.00000000000E+00 -0.23842125793E+01  0.23842125793E+01  0.00000000000E+00 0.  1.
          5    1    1    2  501    0 -0.44861735328E+01 -0.20739677564E+02  0.95479099765E+02  0.97808580761E+02  0.00000000000E+00 0.  1.
         -5    1    1    2    0  503  0.44861735328E+01  0.20739677564E+02  0.91086859730E+02  0.93525803893E+02  0.00000000000E+00 0. -1.
<mgrwt>
<rscale>  2 0.21219330E+02</rscale>
<asrwt>0</asrwt>
<pdfrwt beam="1">  1       21 0.29069246E-01 0.21219330E+02</pdfrwt>
<pdfrwt beam="2">  1       21 0.36680208E-03 0.21219330E+02</pdfrwt>
<totfact> 0.13696694E+08</totfact>
</mgrwt>
</event>
<event>
 4    1  0.7424968E+004  0.2427050E+02  0.7546771E-02  0.1671707E+00
         21   -1    0    0  503  502  0.00000000000E+00  0.00000000000E+00  0.71122511129E+02  0.71122511129E+02  0.00000000000E+00 0.  1.
         21   -1    0    0  501  503 -0.00000000000E+00 -0.00000000000E+00 -0.90912592075E+01  0.90912592075E+01  0.00000000000E+00 0.  1.
          4    1    1    2  501    0  0.16276494996E+02 -0.18003690208E+02  0.42979541363E+02  0.49358870796E+02  0.00000000000E+00 0. -1.
         -4    1    1    2    0  502 -0.16276494996E+02  0.18003690208E+02  0.19051710559E+02  0.30854899541E+02  0.00000000000E+00 0.  1.
<mgrwt>
<rscale>  2 0.24270500E+02</rscale>
<asrwt>0</asrwt>
<pdfrwt beam="1">  1       21 0.10941924E-01 0.24270500E+02</pdfrwt>
<pdfrwt beam="2">  1       21 0.13986553E-02 0.24270500E+02</pdfrwt>
<totfact> 0.10521074E+08</totfact>
</mgrwt>
</event>
<event>
 4    1  0.7424968E+004  0.3346682E+02  0.7546771E-02  0.1562653E+00
         21   -1    0    0  503  502  0.00000000000E+00  0.00000000000E+00  0.53539274963E+01  0.53539274963E+01  0.00000000000E+00 0. -1.
         21   -1    0    0  501  503 -0.00000000000E+00 -0.00000000000E+00 -0.22557000854E+03  0.22557000854E+03  0.00000000000E+00 0. -1.
          2    1    1    2  501    0  0.23941584172E+02 -0.23384363456E+02 -0.79001140459E+02  0.85797483068E+02  0.00000000000E+00 0.  1.
         -2    1    1    2    0  502 -0.23941584172E+02  0.23384363456E+02 -0.14121494059E+03  0.14512645297E+03  0.00000000000E+00 0. -1.
<mgrwt>
<rscale>  2 0.33466818E+02</rscale>
<asrwt>0</asrwt>
<pdfrwt beam="1">  1       21 0.82368139E-03 0.33466818E+02</pdfrwt>
<pdfrwt beam="2">  1       21 0.34703068E-01 0.33466818E+02</pdfrwt>
<totfact> 0.33057332E+07</totfact>
</mgrwt>
</event>
<event>
 4    1  0.7424968E+004  0.2086131E+02  0.7546771E-02  0.1728723E+00
         21   -1    0    0  501  502  0.00000000000E+00  0.00000000000E+00  0.95400919519E+02  0.95400919519E+02  0.00000000000E+00 0. -1.
         21   -1    0    0  502  503 -0.00000000000E+00 -0.00000000000E+00 -0.49930563073E+01  0.49930563073E+01  0.00000000000E+00 0. -1.
          5    1    1    2  501    0 -0.12444091237E+02  0.16743322343E+02  0.59957329421E+02  0.63482876440E+02  0.00000000000E+00 0. -1.
         -5    1    1    2    0  503  0.12444091237E+02 -0.16743322343E+02  0.30450533791E+02  0.36911099387E+02  0.00000000000E+00 0.  1.
<mgrwt>
<rscale>  2 0.20861310E+02</rscale>
<asrwt>0</asrwt>
<pdfrwt beam="1">  1       21 0.14677063E-01 0.20861310E+02</pdfrwt>
<pdfrwt beam="2">  1       21 0.76816258E-03 0.20861310E+02</pdfrwt>
<totfact> 0.15122596E+08</totfact>
</mgrwt>
</event>
<event>
 4    1  0.7424968E+004  0.2091459E+02  0.7546771E-02  0.1727729E+00
         21   -1    0    0  503  502  0.00000000000E+00  0.00000000000E+00  0.10387535908E+02  0.10387535908E+02  0.00000000000E+00 0. -1.
         21   -1    0    0  501  503 -0.00000000000E+00 -0.00000000000E+00 -0.42188034989E+02  0.42188034989E+02  0.00000000000E+00 0. -1.
          2    1    1    2  501    0 -0.20567246363E+02  0.37958381915E+01 -0.17030227393E+02  0.26971256099E+02  0.00000000000E+00 0.  1.
         -2    1    1    2    0  502  0.20567246363E+02 -0.37958381915E+01 -0.14770271688E+02  0.25604314798E+02  0.00000000000E+00 0. -1.
<mgrwt>
<rscale>  2 0.20914588E+02</rscale>
<asrwt>0</asrwt>
<pdfrwt beam="1">  1       21 0.15980824E-02 0.20914588E+02</pdfrwt>
<pdfrwt beam="2">  1       21 0.64904671E-02 0.20914588E+02</pdfrwt>
<totfact> 0.19309019E+08</totfact>
</mgrwt>
</event>
<event>
 4    1  0.7424968E+004  0.2688327E+02  0.7546771E-02  0.1635338E+00
         21   -1    0    0  501  502  0.00000000000E+00  0.00000000000E+00  0.89583687084E+01  0.89583687084E+01  0.00000000000E+00 0. -1.
         21   -1    0    0  502  503 -0.00000000000E+00 -0.00000000000E+00 -0.92144397159E+02  0.92144397159E+02  0.00000000000E+00 0. -1.
          1    1    1    2  501    0  0.24900505126E+01 -0.26767706388E+02 -0.59428355381E+02  0.65226067489E+02  0.00000000000E+00 0. -1.
         -1    1    1    2    0  503 -0.24900505126E+01  0.26767706388E+02 -0.23757673069E+02  0.35876698378E+02  0.00000000000E+00 0.  1.
<mgrwt>
<rscale>  2 0.26883275E+02</rscale>
<asrwt>0</asrwt>
<pdfrwt beam="1">  1       21 0.13782105E-02 0.26883275E+02</pdfrwt>
<pdfrwt beam="2">  1       21 0.14176062E-01 0.26883275E+02</pdfrwt>
<totfact> 0.71369410E+07</totfact>
</mgrwt>
</event>
<event>
 4    1  0.7424968E+004  0.2641993E+02  0.7546771E-02  0.1641406E+00
         21   -1    0    0  503  502  0.00000000000E+00  0.00000000000E+00  0.20642335427E+01  0.20642335427E+01  0.00000000000E+00 0.  1.
         21   -1    0    0  501  503 -0.00000000000E+00 -0.00000000000E+00 -0.33847323201E+03  0.33847323201E+03  0.00000000000E+00 0.  1.
          4    1    1    2  501    0  0.26401378131E+02 -0.98987430892E+00 -0.17349751577E+03  0.17549758003E+03  0.00000000000E+00 0. -1.
         -4    1    1    2    0  502 -0.26401378131E+02  0.98987430892E+00 -0.16291148270E+03  0.16503988552E+03  0.00000000000E+00 0.  1.
<mgrwt>
<rscale>  2 0.26419928E+02</rscale>
<asrwt>0</asrwt>
<pdfrwt beam="1">  1       21 0.31757396E-03 0.26419928E+02</pdfrwt>
<pdfrwt beam="2">  1       21 0.52072876E-01 0.26419928E+02</pdfrwt>
<totfact> 0.59704318E+07</totfact>
</mgrwt>
</event>
<event>
 4    1  0.7424968E+004  0.5350778E+02  0.7546771E-02  0.1427290E+00
         21   -1    0    0  503  502  0.00000000000E+00  0.00000000000E+00  0.28481452136E+04  0.28481452136E+04  0.00000000000E+00 0.  1.
         21   -1    0    0  501  503 -0.00000000000E+00 -0.00000000000E+00 -0.10089392772E+01  0.10089392772E+01  0.00000000000E+00 0.  1.
          4    1    1    2  501    0  0.29807502744E+02 -0.44436421527E+02  0.15097742245E+04  0.15107221093E+04  0.00000000000E+00 0.  1.
         -4    1    1    2    0  502 -0.29807502744E+02  0.44436421527E+02  0.13373620499E+04  0.13384320436E+04  0.00000000000E+00 0. -1.
<mgrwt>
<rscale>  2 0.53507782E+02</rscale>
<asrwt>0</asrwt>
<pdfrwt beam="1">  1       21 0.43816975E+00 0.53507782E+02</pdfrwt>
<pdfrwt beam="2">  1       21 0.15522371E-03 0.53507782E+02</pdfrwt>
<totfact> 0.42188855E+05</totfact>
</mgrwt>
</event>
<event>
 4    1  0.7424968E+004  0.2529495E+02  0.7546771E-02  0.1656801E+00
         21   -1    0    0  501  502  0.00000000000E+00  0.00000000000E+00  0.11160170536E+03  0.11160170536E+03  0.00000000000E+00 0.  1.
         21   -1    0    0  502  503 -0.00000000000E+00 -0.00000000000E+00 -0.62520233288E+01  0.62520233288E+01  0.00000000000E+00 0.  1.
          1    1    1    2  501    0 -0.24674330139E+02 -0.55688465794E+01  0.35699683061E+02  0.43752736951E+02  0.00000000000E+00 0. -1.
         -1    1    1    2    0  503  0.24674330139E+02  0.55688465794E+01  0.69649998969E+02  0.74100991737E+02  0.00000000000E+00 0.  1.
<mgrwt>
<rscale>  2 0.25294952E+02</rscale>
<asrwt>0</asrwt>
<pdfrwt beam="1">  1       21 0.17169492E-01 0.25294952E+02</pdfrwt>
<pdfrwt beam="2">  1       21 0.96184983E-03 0.25294952E+02</pdfrwt>
<totfact> 0.87234482E+07</totfact>
</mgrwt>
</event>
<event>
 4    1  0.7424968E+004  0.2765109E+02  0.7546771E-02  0.1625605E+00
         21   -1    0    0  503  502  0.00000000000E+00  0.00000000000E+00  0.31960132873E+02  0.31960132873E+02  0.00000000000E+00 0.  1.
         21   -1    0    0  501  503 -0.00000000000E+00 -0.00000000000E+00 -0.27069255624E+02  0.27069255624E+02  0.00000000000E+00 0.  1.
          2    1    1    2  501    0  0.25687106782E+02  0.10235007491E+02  0.12507706941E+02  0.30348403024E+02  0.00000000000E+00 0.  1.
         -2    1    1    2    0  502 -0.25687106782E+02 -0.10235007491E+02 -0.76168296921E+01  0.28680985473E+02  0.00000000000E+00 0. -1.
<mgrwt>
<rscale>  2 0.27651091E+02</rscale>
<asrwt>0</asrwt>
<pdfrwt beam="1">  1       21 0.49169435E-02 0.27651091E+02</pdfrwt>
<pdfrwt beam="2">  1       21 0.41645009E-02 0.27651091E+02</pdfrwt>
<totfact> 0.73836625E+07</totfact>
</mgrwt>
</event>
<event>
 4    1  0.7424968E+004  0.2936924E+02  0.7546771E-02  0.1605167E+00
         21   -1    0    0  503  502  0.00000000000E+00  0.00000000000E+00  0.14221521861E+02  0.14221521861E+02  0.00000000000E+00 0. -1.
         21   -1    0    0  501  503 -0.00000000000E+00 -0.00000000000E+00 -0.80938957640E+02  0.80938957640E+02  0.00000000000E+00 0. -1.
          2    1    1    2  501    0 -0.20599837640E+02  0.20933202076E+02 -0.57179988728E+02  0.64281438774E+02  0.00000000000E+00 0. -1.
         -2    1    1    2    0  502  0.20599837640E+02 -0.20933202076E+02 -0.95374470513E+01  0.30879040727E+02  0.00000000000E+00 0.  1.
<mgrwt>
<rscale>  2 0.29369240E+02</rscale>
<asrwt>0</asrwt>
<pdfrwt beam="1">  1       21 0.21879264E-02 0.29369240E+02</pdfrwt>
<pdfrwt beam="2">  1       21 0.12452147E-01 0.29369240E+02</pdfrwt>
<totfact> 0.44623724E+07</totfact>
</mgrwt>
</event>
<event>
 4    1  0.7424968E+004  0.2444584E+02  0.7546771E-02  0.1669091E+00
         21   -1    0    0  503  502  0.00000000000E+00  0.00000000000E+00  0.17768331788E+03  0.17768331788E+03  0.00000000000E+00 0.  1.
         21   -1    0    0  501  503 -0.00000000000E+00 -0.00000000000E+00 -0.34828354417E+01  0.34828354417E+01  0.00000000000E+00 0.  1.
          4    1    1    2  501    0  0.20760720345E+02 -0.12907030192E+02  0.70317482940E+02  0.74445599901E+02  0.00000000000E+00 0.  1.
         -4    1    1    2    0  502 -0.20760720345E+02  0.12907030192E+02  0.10388299950E+03  0.10672055342E+03  0.00000000000E+00 0. -1.
<mgrwt>
<rscale>  2 0.24445837E+02</rscale>
<asrwt>0</asrwt>
<pdfrwt beam="1">  1       21 0.27335888E-01 0.24445837E+02</pdfrwt>
<pdfrwt beam="2">  1       21 0.53582098E-03 0.24445837E+02</pdfrwt>
<totfact> 0.91155372E+07</totfact>
</mgrwt>
</event>
<event>
 4    1  0.7424968E+004  0.2748027E+02  0.7546771E-02  0.1627737E+00
         21   -1    0    0  503  502  0.00000000000E+00  0.00000000000E+00  0.32315195831E+02  0.32315195831E+02  0.00000000000E+00 0. -1.
         21   -1    0    0  501  503 -0.00000000000E+00 -0.00000000000E+00 -0.24425652792E+02  0.24425652792E+02  0.00000000000E+00 0. -1.
          4    1    1    2  501    0  0.19654200357E+02 -0.19206180978E+02 -0.19567643679E+01  0.27549844033E+02  0.00000000000E+00 0.  1.
         -4    1    1    2    0  502 -0.19654200357E+02  0.19206180978E+02  0.98463074065E+01  0.29191004590E+02  0.00000000000E+00 0. -1.
<mgrwt>
<rscale>  2 0.27480265E+02</rscale>
<asrwt>0</asrwt>
<pdfrwt beam="1">  1       21 0.49715686E-02 0.27480265E+02</pdfrwt>
<pdfrwt beam="2">  1       21 0.37577928E-02 0.27480265E+02</pdfrwt>
<totfact> 0.85247109E+07</totfact>
</mgrwt>
</event>
<event>
 4    1  0.7424968E+004  0.2005444E+02  0.7546771E-02  0.1744248E+00
         21   -1    0    0  501  502  0.00000000000E+00  0.00000000000E+00  0.31154260934E+03  0.31154260934E+03  0.00000000000E+00 0.  1.
         21   -1    0    0  502  503 -0.00000000000E+00 -0.00000000000E+00 -0.13216659664E+01  0.13216659664E+01  0.00000000000E+00 0.  1.
          4    1    1    2  501    0  0.47668638740E+01  0.19479672186E+02  0.13125611429E+03  0.13277932127E+03  0.00000000000E+00 0.  1.
         -4    1    1    2    0  503 -0.47668638740E+01 -0.19479672186E+02  0.17896482908E+03  0.18008495403E+03  0.00000000000E+00 0. -1.
<mgrwt>
<rscale>  2 0.20054441E+02</rscale>
<asrwt>0</asrwt>
<pdfrwt beam="1">  1       21 0.47929574E-01 0.20054441E+02</pdfrwt>
<pdfrwt beam="2">  1       21 0.20333347E-03 0.20054441E+02</pdfrwt>
<totfact> 0.12497914E+08</totfact>
</mgrwt>
</event>
<event>
 4    1  0.7424968E+004  0.2082807E+02  0.7546771E-02  0.1729345E+00
         21   -1    0    0  503  502  0.00000000000E+00  0.00000000000E+00  0.16666881217E+02  0.16666881217E+02  0.00000000000E+00 0. -1.
         21   -1    0    0  501  503 -0.00000000000E+00 -0.00000000000E+00 -0.29357230644E+02  0.29357230644E+02  0.00000000000E+00 0. -1.
          5    1    1    2  501    0 -0.15359345098E+02  0.14067652466E+02  0.14040647924E+01  0.20875337738E+02  0.00000000000E+00 0. -1.
         -5    1    1    2    0  502  0.15359345098E+02 -0.14067652466E+02 -0.14094414219E+02  0.25148774123E+02  0.00000000000E+00 0.  1.
<mgrwt>
<rscale>  2 0.20828066E+02</rscale>
<asrwt>0</asrwt>
<pdfrwt beam="1">  1       21 0.25641356E-02 0.20828066E+02</pdfrwt>
<pdfrwt beam="2">  1       21 0.45164970E-02 0.20828066E+02</pdfrwt>
<totfact> 0.16665034E+08</totfact>
</mgrwt>
</event>
<event>
 4    1  0.7424968E+004  0.2150630E+02  0.7546771E-02  0.1716933E+00
         21   -1    0    0  501  502  0.00000000000E+00  0.00000000000E+00  0.17953259025E+02  0.17953259025E+02  0.00000000000E+00 0. -1.
         21   -1    0    0  502  503 -0.00000000000E+00 -0.00000000000E+00 -0.25937037009E+02  0.25937037009E+02  0.00000000000E+00 0. -1.
          3    1    1    2  501    0 -0.17556491611E+02  0.12421372660E+02 -0.57920770828E+01  0.22272607691E+02  0.00000000000E+00 0. -1.
         -3    1    1    2    0  503  0.17556491611E+02 -0.12421372660E+02 -0.21917009005E+01  0.21617688343E+02  0.00000000000E+00 0.  1.
<mgrwt>
<rscale>  2 0.21506299E+02</rscale>
<asrwt>0</asrwt>
<pdfrwt beam="1">  1       21 0.27620398E-02 0.21506299E+02</pdfrwt>
<pdfrwt beam="2">  1       21 0.39903134E-02 0.21506299E+02</pdfrwt>
<totfact> 0.18239888E+08</totfact>
</mgrwt>
</event>
<event>
 4    1  0.7424968E+004  0.2219449E+02  0.7546771E-02  0.1704910E+00
         21   -1    0    0  501  502  0.00000000000E+00  0.00000000000E+00  0.28813518158E+01  0.28813518158E+01  0.00000000000E+00 0.  1.
         21   -1    0    0  502  503 -0.00000000000E+00 -0.00000000000E+00 -0.20105031274E+03  0.20105031274E+03  0.00000000000E+00 0.  1.
          1    1    1    2  501    0 -0.10901510841E+02  0.19332673230E+02 -0.59637167106E+02  0.63633221616E+02  0.00000000000E+00 0. -1.
         -1    1    1    2    0  503  0.10901510841E+02 -0.19332673230E+02 -0.13853179381E+03  0.14029844294E+03  0.00000000000E+00 0.  1.
<mgrwt>
<rscale>  2 0.22194486E+02</rscale>
<asrwt>0</asrwt>
<pdfrwt beam="1">  1       21 0.44328479E-03 0.22194486E+02</pdfrwt>
<pdfrwt beam="2">  1       21 0.30930825E-01 0.22194486E+02</pdfrwt>
<totfact> 0.93907770E+07</totfact>
</mgrwt>
</event>
<event>
 4    1  0.7424968E+004  0.2131124E+02  0.7546771E-02  0.1720443E+00
         21   -1    0    0  501  502  0.00000000000E+00  0.00000000000E+00  0.39957629438E+01  0.39957629438E+01  0.00000000000E+00 0.  1.
         21   -1    0    0  502  503 -0.00000000000E+00 -0.00000000000E+00 -0.12244920280E+03  0.12244920280E+03  0.00000000000E+00 0.  1.
          5    1    1    2  501    0 -0.10575449083E+02 -0.18502135451E+02 -0.42291065022E+02  0.47357188686E+02  0.00000000000E+00 0.  1.
         -5    1    1    2    0  503  0.10575449083E+02  0.18502135451E+02 -0.76162374831E+02  0.79087777055E+02  0.00000000000E+00 0. -1.
<mgrwt>
<rscale>  2 0.21311244E+02</rscale>
<asrwt>0</asrwt>
<pdfrwt beam="1">  1       21 0.61473276E-03 0.21311244E+02</pdfrwt>
<pdfrwt beam="2">  1       21 0.18838339E-01 0.21311244E+02</pdfrwt>
<totfact> 0.13816708E+08</totfact>
</mgrwt>
</event>
<event>
 4    1  0.7424968E+004  0.2016684E+02  0.7546771E-02  0.1742030E+00
         21   -1    0    0  501  502  0.00000000000E+00  0.00000000000E+00  0.25821614006E+02  0.25821614006E+02  0.00000000000E+00 0.  1.
         21   -1    0    0  502  503 -0.00000000000E+00 -0.00000000000E+00 -0.16596604198E+02  0.16596604198E+02  0.00000000000E+00 0.  1.
          3    1    1    2  501    0 -0.17646550366E+02 -0.97622101679E+01  0.94014853284E+01  0.22250604791E+02  0.00000000000E+00 0. -1.
         -3    1    1    2    0  503  0.17646550366E+02  0.97622101679E+01 -0.17647551995E+00  0.20167613413E+02  0.00000000000E+00 0.  1.
<mgrwt>
<rscale>  2 0.20166841E+02</rscale>
<asrwt>0</asrwt>
<pdfrwt beam="1">  1       21 0.39725560E-02 0.20166841E+02</pdfrwt>
<pdfrwt beam="2">  1       21 0.25533237E-02 0.20166841E+02</pdfrwt>
<totfact> 0.20312527E+08</totfact>
</mgrwt>
</event>
<event>
 4    1  0.7424968E+004  0.2018432E+02  0.7546771E-02  0.1741687E+00
         21   -1    0    0  503  502  0.00000000000E+00  0.00000000000E+00  0.23396687750E+01  0.23396687750E+01  0.00000000000E+00 0.  1.
         21   -1    0    0  501  503 -0.00000000000E+00 -0.00000000000E+00 -0.19722959673E+03  0.19722959673E+03  0.00000000000E+00 0.  1.
          4    1    1    2  501    0 -0.19383514964E+02  0.56290449584E+01 -0.13159402064E+03  0.13313299015E+03  0.00000000000E+00 0.  1.
         -4    1    1    2    0  502  0.19383514964E+02 -0.56290449584E+01 -0.63295907313E+02  0.66436275348E+02  0.00000000000E+00 0. -1.
<mgrwt>
<rscale>  2 0.20184321E+02</rscale>
<asrwt>0</asrwt>
<pdfrwt beam="1">  1       21 0.35994890E-03 0.20184321E+02</pdfrwt>
<pdfrwt beam="2">  1       21 0.30343027E-01 0.20184321E+02</pdfrwt>
<totfact> 0.12841060E+08</totfact>
</mgrwt>
</event>
<event>
 4    1  0.7424968E+004  0.2649944E+02  0.7546771E-02  0.1640354E+00
         21   -1    0    0  501  502  0.00000000000E+00  0.00000000000E+00  0.52772290740E+02  0.52772290740E+02  0.00000000000E+00 0.  1.
         21   -1    0    0  502  503 -0.00000000000E+00 -0.00000000000E+00 -0.13646509030E+02  0.13646509030E+02  0.00000000000E+00 0.  1.
          1    1    1    2  501    0 -0.17480772272E+02  0.19915896606E+02  0.24804017577E+02  0.36296826649E+02  0.00000000000E+00 0.  1.
         -1    1    1    2    0  503  0.17480772272E+02 -0.19915896606E+02  0.14321764133E+02  0.30121973121E+02  0.00000000000E+00 0. -1.
<mgrwt>
<rscale>  2 0.26499440E+02</rscale>
<asrwt>0</asrwt>
<pdfrwt beam="1">  1       21 0.81188139E-02 0.26499440E+02</pdfrwt>
<pdfrwt beam="2">  1       21 0.20994630E-02 0.26499440E+02</pdfrwt>
<totfact> 0.94696747E+07</totfact>
</mgrwt>
</event>
<event>
 4    1  0.7424968E+004  0.3442526E+02  0.7546771E-02  0.1553764E+00
         21   -1    0    0  501  502  0.00000000000E+00  0.00000000000E+00  0.96789598072E+01  0.96789598072E+01  0.00000000000E+00 0. -1.
         21   -1    0    0  502  503 -0.00000000000E+00 -0.00000000000E+00 -0.12256777827E+03  0.12256777827E+03  0.00000000000E+00 0. -1.
          3    1    1    2  501    0 -0.24527979880E+02 -0.24155257252E+02 -0.58573855776E+02  0.67941112961E+02  0.00000000000E+00 0. -1.
         -3    1    1    2    0  503  0.24527979880E+02  0.24155257252E+02 -0.54314962689E+02  0.64305625118E+02  0.00000000000E+00 0.  1.
<mgrwt>
<rscale>  2 0.34425256E+02</rscale>
<asrwt>0</asrwt>
<pdfrwt beam="1">  1       21 0.14890707E-02 0.34425256E+02</pdfrwt>
<pdfrwt beam="2">  1       21 0.18856582E-01 0.34425256E+02</pdfrwt>
<totfact> 0.40801909E+07</totfact>
</mgrwt>
</event>
<event>
 4    1  0.7424968E+004  0.2317072E+02  0.7546771E-02  0.1688758E+00
         21   -1    0    0  501  502  0.00000000000E+00  0.00000000000E+00  0.32288253618E+03  0.32288253618E+03  0.00000000000E+00 0. -1.
         21   -1    0    0  502  503 -0.00000000000E+00 -0.00000000000E+00 -0.16899065623E+01  0.16899065623E+01  0.00000000000E+00 0. -1.
          2    1    1    2  501    0 -0.18422139110E+02 -0.14053727967E+02  0.18115764753E+03  0.18263344639E+03  0.00000000000E+00 0.  1.
         -2    1    1    2    0  503  0.18422139110E+02  0.14053727967E+02  0.14003498208E+03  0.14193899636E+03  0.00000000000E+00 0. -1.
<mgrwt>
<rscale>  2 0.23170725E+02</rscale>
<asrwt>0</asrwt>
<pdfrwt beam="1">  1       21 0.49674187E-01 0.23170725E+02</pdfrwt>
<pdfrwt beam="2">  1       21 0.25998588E-03 0.23170725E+02</pdfrwt>
<totfact> 0.84993422E+07</totfact>
</mgrwt>
</event>
<event>
 4    1  0.7424968E+004  0.2406298E+02  0.7546771E-02  0.1674837E+00
         21   -1    0    0  501  502  0.00000000000E+00  0.00000000000E+00  0.20003281804E+02  0.20003281804E+02  0.00000000000E+00 0.  1.
         21   -1    0    0  502  503 -0.00000000000E+00 -0.00000000000E+00 -0.47441452540E+02  0.47441452540E+02  0.00000000000E+00 0.  1.
          5    1    1    2  501    0  0.93276722359E+01  0.22181556947E+02  0.73363649947E+01  0.25156493978E+02  0.00000000000E+00 0. -1.
         -5    1    1    2    0  503 -0.93276722359E+01 -0.22181556947E+02 -0.34774535731E+02  0.42288240366E+02  0.00000000000E+00 0.  1.
<mgrwt>
<rscale>  2 0.24062979E+02</rscale>
<asrwt>0</asrwt>
<pdfrwt beam="1">  1       21 0.30774280E-02 0.24062979E+02</pdfrwt>
<pdfrwt beam="2">  1       21 0.72986850E-02 0.24062979E+02</pdfrwt>
<totfact> 0.60707662E+07</totfact>
</mgrwt>
</event>
<event>
 4    1  0.7424968E+004  0.2325016E+02  0.7546771E-02  0.1687487E+00
         21   -1    0    0  503  502  0.00000000000E+00  0.00000000000E+00  0.15948418606E+02  0.15948418606E+02  0.00000000000E+00 0.  1.
         21   -1    0    0  501  503 -0.00000000000E+00 -0.00000000000E+00 -0.13783520890E+03  0.13783520890E+03  0.00000000000E+00 0.  1.
          2    1    1    2  501    0  0.23249277275E+02  0.20298827009E+00  0.58282407802E+01  0.23969532508E+02  0.00000000000E+00 0.  1.
         -2    1    1    2    0  502 -0.23249277275E+02 -0.20298827009E+00 -0.12771503108E+03  0.12981409500E+03  0.00000000000E+00 0. -1.
<mgrwt>
<rscale>  2 0.23250163E+02</rscale>
<asrwt>0</asrwt>
<pdfrwt beam="1">  1       21 0.24536029E-02 0.23250163E+02</pdfrwt>
<pdfrwt beam="2">  1       21 0.21205416E-01 0.23250163E+02</pdfrwt>
<totfact> 0.14207177E+07</totfact>
</mgrwt>
</event>
<event>
 4    1  0.7424968E+004  0.2091110E+02  0.7546771E-02  0.1727794E+00
         21   -1    0    0  501  502  0.00000000000E+00  0.00000000000E+00  0.52593526241E+01  0.52593526241E+01  0.00000000000E+00 0.  1.
         21   -1    0    0  502  503 -0.00000000000E+00 -0.00000000000E+00 -0.87104382101E+02  0.87104382101E+02  0.00000000000E+00 0.  1.
          4    1    1    2  501    0  0.78077758431E+01 -0.19398783055E+02 -0.50772117253E+02  0.54909762684E+02  0.00000000000E+00 0.  1.
         -4    1    1    2    0  503 -0.78077758431E+01  0.19398783055E+02 -0.31072912224E+02  0.37453972041E+02  0.00000000000E+00 0. -1.
<mgrwt>
<rscale>  2 0.20911101E+02</rscale>
<asrwt>0</asrwt>
<pdfrwt beam="1">  1       21 0.80913124E-03 0.20911101E+02</pdfrwt>
<pdfrwt beam="2">  1       21 0.13400673E-01 0.20911101E+02</pdfrwt>
<totfact> 0.16331897E+08</totfact>
</mgrwt>
</event>
<event>
 4    1  0.7424968E+004  0.2053921E+02  0.7546771E-02  0.1734813E+00
         21   -1    0    0  503  502  0.00000000000E+00  0.00000000000E+00  0.95366778112E+01  0.95366778112E+01  0.00000000000E+00 0.  1.
         21   -1    0    0  501  503 -0.00000000000E+00 -0.00000000000E+00 -0.51160424125E+02  0.51160424125E+02  0.00000000000E+00 0.  1.
          4    1    1    2  501    0  0.19523833388E+02 -0.63780035510E+01 -0.96463071793E+01  0.22691633737E+02  0.00000000000E+00 0.  1.
         -4    1    1    2    0  502 -0.19523833388E+02  0.63780035510E+01 -0.31977439135E+02  0.38005468200E+02  0.00000000000E+00 0. -1.
<mgrwt>
<rscale>  2 0.20539206E+02</rscale>
<asrwt>0</asrwt>
<pdfrwt beam="1">  1       21 0.14671812E-02 0.20539206E+02</pdfrwt>
<pdfrwt beam="2">  1       21 0.78708346E-02 0.20539206E+02</pdfrwt>
<totfact> 0.16007315E+08</totfact>
</mgrwt>
</event>
<event>
 4    1  0.7424968E+004  0.2696440E+02  0.7546771E-02  0.1634291E+00
         21   -1    0    0  503  502  0.00000000000E+00  0.00000000000E+00  0.65155896018E+02  0.65155896018E+02  0.00000000000E+00 0. -1.
         21   -1    0    0  501  503 -0.00000000000E+00 -0.00000000000E+00 -0.14639156679E+02  0.14639156679E+02  0.00000000000E+00 0. -1.
          1    1    1    2  501    0  0.22388402886E+02 -0.15027923525E+02  0.58055258093E+01  0.27582298657E+02  0.00000000000E+00 0. -1.
         -1    1    1    2    0  502 -0.22388402886E+02  0.15027923525E+02  0.44711213530E+02  0.52212754041E+02  0.00000000000E+00 0.  1.
<mgrwt>
<rscale>  2 0.26964404E+02</rscale>
<asrwt>0</asrwt>
<pdfrwt beam="1">  1       21 0.10023984E-01 0.26964404E+02</pdfrwt>
<pdfrwt beam="2">  1       21 0.22521780E-02 0.26964404E+02</pdfrwt>
<totfact> 0.60209060E+07</totfact>
</mgrwt>
</event>
<event>
 4    1  0.7424968E+004  0.2232991E+02  0.7546771E-02  0.1702608E+00
         21   -1    0    0  503  502  0.00000000000E+00  0.00000000000E+00  0.20979354740E+01  0.20979354740E+01  0.00000000000E+00 0. -1.
         21   -1    0    0  501  503 -0.00000000000E+00 -0.00000000000E+00 -0.28921439722E+03  0.28921439722E+03  0.00000000000E+00 0. -1.
          1    1    1    2  501    0 -0.30812177822E+01  0.22116306769E+02 -0.82069946556E+02  0.85053518774E+02  0.00000000000E+00 0. -1.
         -1    1    1    2    0  502  0.30812177822E+01 -0.22116306769E+02 -0.20504651519E+03  0.20625881392E+03  0.00000000000E+00 0.  1.
<mgrwt>
<rscale>  2 0.22329911E+02</rscale>
<asrwt>0</asrwt>
<pdfrwt beam="1">  1       21 0.32275960E-03 0.22329911E+02</pdfrwt>
<pdfrwt beam="2">  1       21 0.44494481E-01 0.22329911E+02</pdfrwt>
<totfact> 0.75979656E+07</totfact>
</mgrwt>
</event>
<event>
 4    1  0.7424968E+004  0.2175071E+02  0.7546771E-02  0.1712599E+00
         21   -1    0    0  503  502  0.00000000000E+00  0.00000000000E+00  0.71704741063E+00  0.71704741063E+00  0.00000000000E+00 0. -1.
         21   -1    0    0  501  503 -0.00000000000E+00 -0.00000000000E+00 -0.65979460287E+03  0.65979460287E+03  0.00000000000E+00 0. -1.
          5    1    1    2  501    0 -0.20195641041E+02  0.80764722458E+01 -0.32796887843E+03  0.32868933438E+03  0.00000000000E+00 0.  1.
         -5    1    1    2    0  502  0.20195641041E+02 -0.80764722458E+01 -0.33110867703E+03  0.33182231590E+03  0.00000000000E+00 0. -1.
<mgrwt>
<rscale>  2 0.21750709E+02</rscale>
<asrwt>0</asrwt>
<pdfrwt beam="1">  1       21 0.11031540E-03 0.21750709E+02</pdfrwt>
<pdfrwt beam="2">  1       21 0.10150649E+00 0.21750709E+02</pdfrwt>
<totfact> 0.66026757E+07</totfact>
</mgrwt>
</event>
<event>
 4    1  0.7424968E+004  0.2014999E+02  0.7546771E-02  0.1742362E+00
         21   -1    0    0  501  502  0.00000000000E+00  0.00000000000E+00  0.55044152070E+00  0.55044152070E+00  0.00000000000E+00 0.  1.
         21   -1    0    0  502  503 -0.00000000000E+00 -0.00000000000E+00 -0.82452689943E+03  0.82452689943E+03  0.00000000000E+00 0.  1.
          5    1    1    2  501    0 -0.12969099741E+01  0.20108206986E+02 -0.27806208403E+03  0.27879122034E+03  0.00000000000E+00 0.  1.
         -5    1    1    2    0  503  0.12969099741E+01 -0.20108206986E+02 -0.54591437388E+03  0.54628612061E+03  0.00000000000E+00 0. -1.
<mgrwt>
<rscale>  2 0.20149987E+02</rscale>
<asrwt>0</asrwt>
<pdfrwt beam="1">  1       21 0.84682934E-04 0.20149987E+02</pdfrwt>
<pdfrwt beam="2">  1       21 0.12685086E+00 0.20149987E+02</pdfrwt>
<totfact> 0.57403680E+07</totfact>
</mgrwt>
</event>
<event>
 4    1  0.7424968E+004  0.3897095E+02  0.7546771E-02  0.1515924E+00
         21   -1    0    0  501  502  0.00000000000E+00  0.00000000000E+00  0.12528463921E+02  0.12528463921E+02  0.00000000000E+00 0. -1.
         21   -1    0    0  502  503 -0.00000000000E+00 -0.00000000000E+00 -0.17272923900E+03  0.17272923900E+03  0.00000000000E+00 0. -1.
          3    1    1    2  501    0 -0.33125049644E+02 -0.20529640870E+02 -0.29518591140E+02  0.48888467874E+02  0.00000000000E+00 0. -1.
         -3    1    1    2    0  503  0.33125049644E+02  0.20529640870E+02 -0.13068218394E+03  0.13636923504E+03  0.00000000000E+00 0.  1.
<mgrwt>
<rscale>  2 0.38970952E+02</rscale>
<asrwt>0</asrwt>
<pdfrwt beam="1">  1       21 0.19274561E-02 0.38970952E+02</pdfrwt>
<pdfrwt beam="2">  1       21 0.26573728E-01 0.38970952E+02</pdfrwt>
<totfact> 0.15076796E+07</totfact>
</mgrwt>
</event>
<event>
 4    1  0.7424968E+004  0.3849135E+02  0.7546771E-02  0.1519616E+00
         21   -1    0    0  501  502  0.00000000000E+00  0.00000000000E+00  0.71885198126E+02  0.71885198126E+02  0.00000000000E+00 0.  1.
         21   -1    0    0  502  503 -0.00000000000E+00 -0.00000000000E+00 -0.21459075689E+02  0.21459075689E+02  0.00000000000E+00 0.  1.
          3    1    1    2  501    0 -0.15616722037E+02 -0.35180989408E+02  0.34494564171E+02  0.51686158498E+02  0.00000000000E+00 0. -1.
         -3    1    1    2    0  503  0.15616722037E+02  0.35180989408E+02  0.15931558266E+02  0.41658115316E+02  0.00000000000E+00 0.  1.
<mgrwt>
<rscale>  2 0.38491350E+02</rscale>
<asrwt>0</asrwt>
<pdfrwt beam="1">  1       21 0.11059261E-01 0.38491350E+02</pdfrwt>
<pdfrwt beam="2">  1       21 0.33013963E-02 0.38491350E+02</pdfrwt>
<totfact> 0.30139827E+07</totfact>
</mgrwt>
</event>
<event>
 4    1  0.7424968E+004  0.3995217E+02  0.7546771E-02  0.1508564E+00
         21   -1    0    0  503  502  0.00000000000E+00  0.00000000000E+00  0.65717152313E+02  0.65717152313E+02  0.00000000000E+00 0. -1.
         21   -1    0    0  501  503 -0.00000000000E+00 -0.00000000000E+00 -0.24377405312E+02  0.24377405312E+02  0.00000000000E+00 0. -1.
          1    1    1    2  501    0 -0.32595917036E+02  0.23101562538E+02  0.17950587990E+02  0.43799538905E+02  0.00000000000E+00 0. -1.
         -1    1    1    2    0  502  0.32595917036E+02 -0.23101562538E+02  0.23389159011E+02  0.46295018720E+02  0.00000000000E+00 0.  1.
<mgrwt>
<rscale>  2 0.39952171E+02</rscale>
<asrwt>0</asrwt>
<pdfrwt beam="1">  1       21 0.10110331E-01 0.39952171E+02</pdfrwt>
<pdfrwt beam="2">  1       21 0.37503701E-02 0.39952171E+02</pdfrwt>
<totfact> 0.28808977E+07</totfact>
</mgrwt>
</event>
<event>
 4    1  0.7424968E+004  0.2729498E+02  0.7546771E-02  0.1630070E+00
         21   -1    0    0  503  502  0.00000000000E+00  0.00000000000E+00  0.16948201516E+03  0.16948201516E+03  0.00000000000E+00 0.  1.
         21   -1    0    0  501  503 -0.00000000000E+00 -0.00000000000E+00 -0.44154343509E+01  0.44154343509E+01  0.00000000000E+00 0.  1.
          3    1    1    2  501    0  0.18103556512E+02 -0.20427369538E+02  0.88325152291E+02  0.92446464031E+02  0.00000000000E+00 0.  1.
         -3    1    1    2    0  502 -0.18103556512E+02  0.20427369538E+02  0.76741428518E+02  0.81450985479E+02  0.00000000000E+00 0. -1.
<mgrwt>
<rscale>  2 0.27294985E+02</rscale>
<asrwt>0</asrwt>
<pdfrwt beam="1">  1       21 0.26074151E-01 0.27294985E+02</pdfrwt>
<pdfrwt beam="2">  1       21 0.67929772E-03 0.27294985E+02</pdfrwt>
<totfact> 0.71642731E+07</totfact>
</mgrwt>
</event>
<event>
 4    1  0.7424968E+004  0.2370247E+02  0.7546771E-02  0.1680370E+00
         21   -1    0    0  503  502  0.00000000000E+00  0.00000000000E+00  0.80764282270E+03  0.80764282270E+03  0.00000000000E+00 0. -1.
         21   -1    0    0  501  503 -0.00000000000E+00 -0.00000000000E+00 -0.90463749476E+00  0.90463749476E+00  0.00000000000E+00 0. -1.
          1    1    1    2  501    0 -0.57213174065E+01 -0.23001603537E+02  0.20904067362E+03  0.21038015702E+03  0.00000000000E+00 0. -1.
         -1    1    1    2    0  502  0.57213174065E+01  0.23001603537E+02  0.59769751158E+03  0.59816730318E+03  0.00000000000E+00 0.  1.
<mgrwt>
<rscale>  2 0.23702473E+02</rscale>
<asrwt>0</asrwt>
<pdfrwt beam="1">  1       21 0.12425217E+00 0.23702473E+02</pdfrwt>
<pdfrwt beam="2">  1       21 0.13917564E-03 0.23702473E+02</pdfrwt>
<totfact> 0.30699594E+07</totfact>
</mgrwt>
</event>
<event>
 4    1  0.7424968E+004  0.2407713E+02  0.7546771E-02  0.1674622E+00
         21   -1    0    0  503  502  0.00000000000E+00  0.00000000000E+00  0.86827524615E+02  0.86827524615E+02  0.00000000000E+00 0.  1.
         21   -1    0    0  501  503 -0.00000000000E+00 -0.00000000000E+00 -0.78324839546E+01  0.78324839546E+01  0.00000000000E+00 0.  1.
          5    1    1    2  501    0 -0.23935689357E+02 -0.26059790677E+01  0.57680003971E+02  0.62503529581E+02  0.00000000000E+00 0.  1.
         -5    1    1    2    0  502  0.23935689357E+02  0.26059790677E+01  0.21315036689E+02  0.32156478989E+02  0.00000000000E+00 0. -1.
<mgrwt>
<rscale>  2 0.24077133E+02</rscale>
<asrwt>0</asrwt>
<pdfrwt beam="1">  1       21 0.13358080E-01 0.24077133E+02</pdfrwt>
<pdfrwt beam="2">  1       21 0.12049976E-02 0.24077133E+02</pdfrwt>
<totfact> 0.94129919E+07</totfact>
</mgrwt>
</event>
<event>
 4    1  0.7424968E+004  0.2019537E+02  0.7546771E-02  0.1741471E+00
         21   -1    0    0  503  502  0.00000000000E+00  0.00000000000E+00  0.14410850512E+01  0.14410850512E+01  0.00000000000E+00 0.  1.
         21   -1    0    0  501  503 -0.00000000000E+00 -0.00000000000E+00 -0.30607302832E+03  0.30607302832E+03  0.00000000000E+00 0.  1.
          3    1    1    2  501    0  0.19232506465E+02 -0.61614573469E+01 -0.11011656733E+03  0.11195316549E+03  0.00000000000E+00 0.  1.
         -3    1    1    2    0  502 -0.19232506465E+02  0.61614573469E+01 -0.19451537594E+03  0.19556094789E+03  0.00000000000E+00 0. -1.
<mgrwt>
<rscale>  2 0.20195367E+02</rscale>
<asrwt>0</asrwt>
<pdfrwt beam="1">  1       21 0.22170532E-03 0.20195367E+02</pdfrwt>
<pdfrwt beam="2">  1       21 0.47088174E-01 0.20195367E+02</pdfrwt>
<totfact> 0.11439441E+08</totfact>
</mgrwt>
</event>
<event>
 4    1  0.7424968E+004  0.2033545E+02  0.7546771E-02  0.1738738E+00
         21   -1    0    0  501  502  0.00000000000E+00  0.00000000000E+00  0.12641355932E+03  0.12641355932E+03  0.00000000000E+00 0.  1.
         21   -1    0    0  502  503 -0.00000000000E+00 -0.00000000000E+00 -0.34014344581E+01  0.34014344581E+01  0.00000000000E+00 0.  1.
          3    1    1    2  501    0 -0.34164108463E+01  0.20046417271E+02  0.48807962935E+02  0.52874832901E+02  0.00000000000E+00 0. -1.
         -3    1    1    2    0  503  0.34164108463E+01 -0.20046417271E+02  0.74204161922E+02  0.76940160872E+02  0.00000000000E+00 0.  1.
<mgrwt>
<rscale>  2 0.20335454E+02</rscale>
<asrwt>0</asrwt>
<pdfrwt beam="1">  1       21 0.19448236E-01 0.20335454E+02</pdfrwt>
<pdfrwt beam="2">  1       21 0.52329771E-03 0.20335454E+02</pdfrwt>
<totfact> 0.16348928E+08</totfact>
</mgrwt>
</event>
<event>
 4    1  0.7424968E+004  0.2262813E+02  0.7546771E-02  0.1697610E+00
         21   -1    0    0  503  502  0.00000000000E+00  0.00000000000E+00  0.29657272811E+01  0.29657272811E+01  0.00000000000E+00 0. -1.
         21   -1    0    0  501  503 -0.00000000000E+00 -0.00000000000E+00 -0.17303694205E+03  0.17303694205E+03  0.00000000000E+00 0. -1.
          5    1    1    2  501    0  0.20934923224E+02  0.85884459236E+01 -0.89197767039E+02  0.92023225647E+02  0.00000000000E+00 0.  1.
         -5    1    1    2    0  502 -0.20934923224E+02 -0.85884459236E+01 -0.80873447734E+02  0.83979443688E+02  0.00000000000E+00 0. -1.
<mgrwt>
<rscale>  2 0.22628133E+02</rscale>
<asrwt>0</asrwt>
<pdfrwt beam="1">  1       21 0.45626575E-03 0.22628133E+02</pdfrwt>
<pdfrwt beam="2">  1       21 0.26621067E-01 0.22628133E+02</pdfrwt>
<totfact> 0.11868533E+08</totfact>
</mgrwt>
</event>
<event>
 4    1  0.7424968E+004  0.3333416E+02  0.7546771E-02  0.1563911E+00
         21   -1    0    0  503  502  0.00000000000E+00  0.00000000000E+00  0.73419813580E+02  0.73419813580E+02  0.00000000000E+00 0.  1.
         21   -1    0    0  501  503 -0.00000000000E+00 -0.00000000000E+00 -0.15143574113E+02  0.15143574113E+02  0.00000000000E+00 0.  1.
          1    1    1    2  501    0 -0.26435604681E+02 -0.20305789759E+02  0.30226846651E+02  0.44998094972E+02  0.00000000000E+00 0.  1.
         -1    1    1    2    0  502  0.26435604681E+02  0.20305789759E+02  0.28049392815E+02  0.43565292721E+02  0.00000000000E+00 0. -1.
<mgrwt>
<rscale>  2 0.33334161E+02</rscale>
<asrwt>0</asrwt>
<pdfrwt beam="1">  1       21 0.11295356E-01 0.33334161E+02</pdfrwt>
<pdfrwt beam="2">  1       21 0.23297807E-02 0.33334161E+02</pdfrwt>
<totfact> 0.49018975E+07</totfact>
</mgrwt>
</event>
<event>
 4    1  0.7424968E+004  0.2070684E+02  0.7546771E-02  0.1731626E+00
         21   -1    0    0  501  502  0.00000000000E+00  0.00000000000E+00  0.10004878583E+01  0.10004878583E+01  0.00000000000E+00 0. -1.
         21   -1    0    0  502  503 -0.00000000000E+00 -0.00000000000E+00 -0.51237396174E+03  0.51237396174E+03  0.00000000000E+00 0. -1.
          2    1    1    2  501    0 -0.35058739470E+01 -0.20407890063E+02 -0.15187214063E+03  0.15327726585E+03  0.00000000000E+00 0. -1.
         -2    1    1    2    0  503  0.35058739470E+01  0.20407890063E+02 -0.35950133325E+03  0.36009718374E+03  0.00000000000E+00 0.  1.
<mgrwt>
<rscale>  2 0.20706838E+02</rscale>
<asrwt>0</asrwt>
<pdfrwt beam="1">  1       21 0.15392165E-03 0.20706838E+02</pdfrwt>
<pdfrwt beam="2">  1       21 0.78826539E-01 0.20706838E+02</pdfrwt>
<totfact> 0.69553689E+07</totfact>
</mgrwt>
</event>
<event>
 4    1  0.7424968E+004  0.2356122E+02  0.7546771E-02  0.1682571E+00
         21   -1    0    0  501  502  0.00000000000E+00  0.00000000000E+00  0.88384501093E+02  0.88384501093E+02  0.00000000000E+00 0.  1.
         21   -1    0    0  502  503 -0.00000000000E+00 -0.00000000000E+00 -0.64101201384E+01  0.64101201384E+01  0.00000000000E+00 0.  1.
          4    1    1    2  501    0  0.21126982848E+01  0.23466307822E+02  0.34256727286E+02  0.41577090581E+02  0.00000000000E+00 0. -1.
         -4    1    1    2    0  503 -0.21126982848E+01 -0.23466307822E+02  0.47717653668E+02  0.53217530650E+02  0.00000000000E+00 0.  1.
<mgrwt>
<rscale>  2 0.23561220E+02</rscale>
<asrwt>0</asrwt>
<pdfrwt beam="1">  1       21 0.13597615E-01 0.23561220E+02</pdfrwt>
<pdfrwt beam="2">  1       21 0.98617239E-03 0.23561220E+02</pdfrwt>
<totfact> 0.12280641E+08</totfact>
</mgrwt>
</event>
<event>
 4    1  0.7424968E+004  0.2283635E+02  0.7546771E-02  0.1694177E+00
         21   -1    0    0  503  502  0.00000000000E+00  0.00000000000E+00  0.57580449772E+00  0.57580449772E+00  0.00000000000E+00 0.  1.
         21   -1    0    0  501  503 -0.00000000000E+00 -0.00000000000E+00 -0.90573148957E+03  0.90573148957E+03  0.00000000000E+00 0.  1.
          2    1    1    2  501    0  0.22249125921E+02 -0.51454132244E+01 -0.44941638373E+03  0.44999620536E+03  0.00000000000E+00 0. -1.
         -2    1    1    2    0  502 -0.22249125921E+02  0.51454132244E+01 -0.45573930135E+03  0.45631108871E+03  0.00000000000E+00 0.  1.
<mgrwt>
<rscale>  2 0.22836350E+02</rscale>
<asrwt>0</asrwt>
<pdfrwt beam="1">  1       21 0.88584560E-04 0.22836350E+02</pdfrwt>
<pdfrwt beam="2">  1       21 0.13934448E+00 0.22836350E+02</pdfrwt>
<totfact> 0.44576722E+07</totfact>
</mgrwt>
</event>
<event>
 4    1  0.7424968E+004  0.2849127E+02  0.7546771E-02  0.1615390E+00
         21   -1    0    0  503  502  0.00000000000E+00  0.00000000000E+00  0.26910312683E+02  0.26910312683E+02  0.00000000000E+00 0. -1.
         21   -1    0    0  501  503 -0.00000000000E+00 -0.00000000000E+00 -0.31167275628E+02  0.31167275628E+02  0.00000000000E+00 0. -1.
          3    1    1    2  501    0 -0.24956403849E+02 -0.13745203783E+02  0.30786372174E+01  0.28657123498E+02  0.00000000000E+00 0. -1.
         -3    1    1    2    0  502  0.24956403849E+02  0.13745203783E+02 -0.73356001618E+01  0.29420464813E+02  0.00000000000E+00 0.  1.
<mgrwt>
<rscale>  2 0.28491274E+02</rscale>
<asrwt>0</asrwt>
<pdfrwt beam="1">  1       21 0.41400481E-02 0.28491274E+02</pdfrwt>
<pdfrwt beam="2">  1       21 0.47949655E-02 0.28491274E+02</pdfrwt>
<totfact> 0.78176626E+07</totfact>
</mgrwt>
</event>
<event>
 4    1  0.7424968E+004  0.2217631E+02  0.7546771E-02  0.1705221E+00
         21   -1    0    0  501  502  0.00000000000E+00  0.00000000000E+00  0.21590515891E+04  0.21590515891E+04  0.00000000000E+00 0.  1.
         21   -1    0    0  502  503 -0.00000000000E+00 -0.00000000000E+00 -0.29815994878E+00  0.29815994878E+00  0.00000000000E+00 0.  1.
          3    1    1    2  501    0 -0.15480831052E+02  0.15878681611E+02  0.55481936723E+03  0.55526238745E+03  0.00000000000E+00 0. -1.
         -3    1    1    2    0  503  0.15480831052E+02 -0.15878681611E+02  0.16039340619E+04  0.16040873616E+04  0.00000000000E+00 0.  1.
<mgrwt>
<rscale>  2 0.22176309E+02</rscale>
<asrwt>0</asrwt>
<pdfrwt beam="1">  1       21 0.33214926E+00 0.22176309E+02</pdfrwt>
<pdfrwt beam="2">  1       21 0.45872490E-04 0.22176309E+02</pdfrwt>
<totfact> 0.10221127E+07</totfact>
</mgrwt>
</event>
<event>
 4    1  0.7424968E+004  0.3115895E+02  0.7546771E-02  0.1585620E+00
         21   -1    0    0  503  502  0.00000000000E+00  0.00000000000E+00  0.45614066197E+03  0.45614066197E+03  0.00000000000E+00 0.  1.
         21   -1    0    0  501  503 -0.00000000000E+00 -0.00000000000E+00 -0.39947897865E+01  0.39947897865E+01  0.00000000000E+00 0.  1.
          3    1    1    2  501    0  0.30774956578E+02 -0.48767003768E+01  0.68818769484E+02  0.75544048026E+02  0.00000000000E+00 0. -1.
         -3    1    1    2    0  502 -0.30774956578E+02  0.48767003768E+01  0.38332710270E+03  0.38459140373E+03  0.00000000000E+00 0.  1.
<mgrwt>
<rscale>  2 0.31158950E+02</rscale>
<asrwt>0</asrwt>
<pdfrwt beam="1">  1       21 0.70175445E-01 0.31158950E+02</pdfrwt>
<pdfrwt beam="2">  1       21 0.61458340E-03 0.31158950E+02</pdfrwt>
<totfact> 0.12667188E+07</totfact>
</mgrwt>
</event>
<event>
 4    1  0.7424968E+004  0.2625295E+02  0.7546771E-02  0.1643631E+00
         21   -1    0    0  503  502  0.00000000000E+00  0.00000000000E+00  0.12485798163E+02  0.12485798163E+02  0.00000000000E+00 0. -1.
         21   -1    0    0  501  503 -0.00000000000E+00 -0.00000000000E+00 -0.60070692515E+02  0.60070692515E+02  0.00000000000E+00 0. -1.
          3    1    1    2  501    0  0.18797740867E+02 -0.18326543098E+02 -0.34122584137E+02  0.43053083418E+02  0.00000000000E+00 0. -1.
         -3    1    1    2    0  502 -0.18797740867E+02  0.18326543098E+02 -0.13462310216E+02  0.29503407261E+02  0.00000000000E+00 0.  1.
<mgrwt>
<rscale>  2 0.26252947E+02</rscale>
<asrwt>0</asrwt>
<pdfrwt beam="1">  1       21 0.19208920E-02 0.26252947E+02</pdfrwt>
<pdfrwt beam="2">  1       21 0.92416450E-02 0.26252947E+02</pdfrwt>
<totfact> 0.87516759E+07</totfact>
</mgrwt>
</event>
<event>
 4    1  0.7424968E+004  0.2248813E+02  0.7546771E-02  0.1699944E+00
         21   -1    0    0  503  502  0.00000000000E+00  0.00000000000E+00  0.13394835849E+02  0.13394835849E+02  0.00000000000E+00 0.  1.
         21   -1    0    0  501  503 -0.00000000000E+00 -0.00000000000E+00 -0.81221576605E+02  0.81221576605E+02  0.00000000000E+00 0.  1.
          3    1    1    2  501    0 -0.19373098107E+02 -0.11419245191E+02  0.69496463291E+00  0.22498868123E+02  0.00000000000E+00 0. -1.
         -3    1    1    2    0  502  0.19373098107E+02  0.11419245191E+02 -0.68521705389E+02  0.72117544331E+02  0.00000000000E+00 0.  1.
<mgrwt>
<rscale>  2 0.22488132E+02</rscale>
<asrwt>0</asrwt>
<pdfrwt beam="1">  1       21 0.20607439E-02 0.22488132E+02</pdfrwt>
<pdfrwt beam="2">  1       21 0.12495628E-01 0.22488132E+02</pdfrwt>
<totfact> 0.45675637E+07</totfact>
</mgrwt>
</event>
<event>
 4    1  0.7424968E+004  0.2765304E+02  0.7546771E-02  0.1625581E+00
         21   -1    0    0  503  502  0.00000000000E+00  0.00000000000E+00  0.44207769248E+02  0.44207769248E+02  0.00000000000E+00 0.  1.
         21   -1    0    0  501  503 -0.00000000000E+00 -0.00000000000E+00 -0.36023918508E+02  0.36023918508E+02  0.00000000000E+00 0.  1.
          4    1    1    2  501    0 -0.94454857911E+01  0.25989870130E+02 -0.24831256709E+02  0.37165600505E+02  0.00000000000E+00 0.  1.
         -4    1    1    2    0  502  0.94454857911E+01 -0.25989870130E+02  0.33015107449E+02  0.43066087250E+02  0.00000000000E+00 0. -1.
<mgrwt>
<rscale>  2 0.27653039E+02</rscale>
<asrwt>0</asrwt>
<pdfrwt beam="1">  1       21 0.68011953E-02 0.27653039E+02</pdfrwt>
<pdfrwt beam="2">  1       21 0.55421413E-02 0.27653039E+02</pdfrwt>
<totfact> 0.27675981E+07</totfact>
</mgrwt>
</event>
<event>
 4    1  0.7424968E+004  0.2079189E+02  0.7546771E-02  0.1730024E+00
         21   -1    0    0  503  502  0.00000000000E+00  0.00000000000E+00  0.24108648243E+02  0.24108648243E+02  0.00000000000E+00 0. -1.
         21   -1    0    0  501  503 -0.00000000000E+00 -0.00000000000E+00 -0.18125054798E+02  0.18125054798E+02  0.00000000000E+00 0. -1.
          5    1    1    2  501    0 -0.10338326167E+01 -0.20766168394E+02  0.80922260341E+00  0.20807628430E+02  0.00000000000E+00 0. -1.
         -5    1    1    2    0  502  0.10338326167E+01  0.20766168394E+02  0.51743708418E+01  0.21426074612E+02  0.00000000000E+00 0.  1.
<mgrwt>
<rscale>  2 0.20791887E+02</rscale>
<asrwt>0</asrwt>
<pdfrwt beam="1">  1       21 0.37090228E-02 0.20791887E+02</pdfrwt>
<pdfrwt beam="2">  1       21 0.27884700E-02 0.20791887E+02</pdfrwt>
<totfact> 0.19939466E+08</totfact>
</mgrwt>
</event>
<event>
 4    1  0.7424968E+004  0.6632049E+02  0.7546771E-02  0.1373072E+00
         21   -1    0    0  501  502  0.00000000000E+00  0.00000000000E+00  0.41741300155E+01  0.41741300155E+01  0.00000000000E+00 0. -1.
         21   -1    0    0  502  503 -0.00000000000E+00 -0.00000000000E+00 -0.12247691265E+04  0.12247691265E+04  0.00000000000E+00 0. -1.
          4    1    1    2  501    0 -0.65264759312E+02  0.11786381192E+02 -0.83992398324E+03  0.84253825149E+03  0.00000000000E+00 0. -1.
         -4    1    1    2    0  503  0.65264759312E+02 -0.11786381192E+02 -0.38067101322E+03  0.38640500500E+03  0.00000000000E+00 0.  1.
<mgrwt>
<rscale>  2 0.66320491E+02</rscale>
<asrwt>0</asrwt>
<pdfrwt beam="1">  1       21 0.64217408E-03 0.66320491E+02</pdfrwt>
<pdfrwt beam="2">  1       21 0.18842595E+00 0.66320491E+02</pdfrwt>
<totfact> 0.12402863E+06</totfact>
</mgrwt>
</event>
<event>
 4    1  0.7424968E+004  0.2203407E+02  0.7546771E-02  0.1707663E+00
         21   -1    0    0  501  502  0.00000000000E+00  0.00000000000E+00  0.41466000324E+02  0.41466000324E+02  0.00000000000E+00 0.  1.
         21   -1    0    0  502  503 -0.00000000000E+00 -0.00000000000E+00 -0.11782260611E+02  0.11782260611E+02  0.00000000000E+00 0.  1.
          4    1    1    2  501    0  0.65744849521E+01 -0.21030367564E+02  0.12733779327E+02  0.25448955739E+02  0.00000000000E+00 0. -1.
         -4    1    1    2    0  503 -0.65744849521E+01  0.21030367564E+02  0.16949960386E+02  0.27799305196E+02  0.00000000000E+00 0.  1.
<mgrwt>
<rscale>  2 0.22034069E+02</rscale>
<asrwt>0</asrwt>
<pdfrwt beam="1">  1       21 0.63793846E-02 0.22034069E+02</pdfrwt>
<pdfrwt beam="2">  1       21 0.18126555E-02 0.22034069E+02</pdfrwt>
<totfact> 0.16658489E+08</totfact>
</mgrwt>
</event>
<event>
 4    1  0.7424968E+004  0.2654716E+02  0.7546771E-02  0.1639725E+00
         21   -1    0    0  501  502  0.00000000000E+00  0.00000000000E+00  0.26945246568E+02  0.26945246568E+02  0.00000000000E+00 0.  1.
         21   -1    0    0  502  503 -0.00000000000E+00 -0.00000000000E+00 -0.41424062096E+02  0.41424062096E+02  0.00000000000E+00 0.  1.
          5    1    1    2  501    0  0.25076650413E+02 -0.87128150870E+01 -0.27993883163E+02  0.38579904578E+02  0.00000000000E+00 0. -1.
         -5    1    1    2    0  503 -0.25076650413E+02  0.87128150870E+01  0.13515067635E+02  0.29789404087E+02  0.00000000000E+00 0.  1.
<mgrwt>
<rscale>  2 0.26547157E+02</rscale>
<asrwt>0</asrwt>
<pdfrwt beam="1">  1       21 0.41454226E-02 0.26547157E+02</pdfrwt>
<pdfrwt beam="2">  1       21 0.63729326E-02 0.26547157E+02</pdfrwt>
<totfact> 0.48491223E+07</totfact>
</mgrwt>
</event>
<event>
 4    1  0.7424968E+004  0.2602022E+02  0.7546771E-02  0.1646766E+00
         21   -1    0    0  501  502  0.00000000000E+00  0.00000000000E+00  0.10430875511E+03  0.10430875511E+03  0.00000000000E+00 0.  1.
         21   -1    0    0  502  503 -0.00000000000E+00 -0.00000000000E+00 -0.64909528011E+01  0.64909528011E+01  0.00000000000E+00 0.  1.
          2    1    1    2  501    0 -0.34550135004E+01 -0.25789814580E+02  0.49137734117E+02  0.55601875584E+02  0.00000000000E+00 0.  1.
         -2    1    1    2    0  503  0.34550135004E+01  0.25789814580E+02  0.48680068191E+02  0.55197832325E+02  0.00000000000E+00 0. -1.
<mgrwt>
<rscale>  2 0.26020216E+02</rscale>
<asrwt>0</asrwt>
<pdfrwt beam="1">  1       21 0.16047500E-01 0.26020216E+02</pdfrwt>
<pdfrwt beam="2">  1       21 0.99860820E-03 0.26020216E+02</pdfrwt>
<totfact> 0.93296768E+07</totfact>
</mgrwt>
</event>
<event>
 4    1  0.7424968E+004  0.2316856E+02  0.7546771E-02  0.1688792E+00
         21   -1    0    0  501  502  0.00000000000E+00  0.00000000000E+00  0.35469286154E+02  0.35469286154E+02  0.00000000000E+00 0.  1.
         21   -1    0    0  502  503 -0.00000000000E+00 -0.00000000000E+00 -0.15271604532E+02  0.15271604532E+02  0.00000000000E+00 0.  1.
          3    1    1    2  501    0 -0.90089321857E+01  0.21345286976E+02  0.12509569942E+02  0.26330048905E+02  0.00000000000E+00 0. -1.
         -3    1    1    2    0  503  0.90089321857E+01 -0.21345286976E+02  0.76881116794E+01  0.24410841780E+02  0.00000000000E+00 0.  1.
<mgrwt>
<rscale>  2 0.23168559E+02</rscale>
<asrwt>0</asrwt>
<pdfrwt beam="1">  1       21 0.54568132E-02 0.23168559E+02</pdfrwt>
<pdfrwt beam="2">  1       21 0.23494776E-02 0.23168559E+02</pdfrwt>
<totfact> 0.14594015E+08</totfact>
</mgrwt>
</event>
<event>
 4    1  0.7424968E+004  0.2280845E+02  0.7546771E-02  0.1694634E+00
         21   -1    0    0  503  502  0.00000000000E+00  0.00000000000E+00  0.77422857487E+02  0.77422857487E+02  0.00000000000E+00 0.  1.
         21   -1    0    0  501  503 -0.00000000000E+00 -0.00000000000E+00 -0.71752583791E+01  0.71752583791E+01  0.00000000000E+00 0.  1.
          4    1    1    2  501    0  0.20496019599E+02 -0.10006935083E+02  0.24460642063E+02  0.33444709287E+02  0.00000000000E+00 0.  1.
         -4    1    1    2    0  502 -0.20496019599E+02  0.10006935083E+02  0.45786957045E+02  0.51153406579E+02  0.00000000000E+00 0. -1.
<mgrwt>
<rscale>  2 0.22808454E+02</rscale>
<asrwt>0</asrwt>
<pdfrwt beam="1">  1       21 0.11911208E-01 0.22808454E+02</pdfrwt>
<pdfrwt beam="2">  1       21 0.11038860E-02 0.22808454E+02</pdfrwt>
<totfact> 0.12829255E+08</totfact>
</mgrwt>
</event>
<event>
 4    1  0.7424968E+004  0.2466991E+02  0.7546771E-02  0.1665789E+00
         21   -1    0    0  503  502  0.00000000000E+00  0.00000000000E+00  0.52885381376E+02  0.52885381376E+02  0.00000000000E+00 0. -1.
         21   -1    0    0  501  503 -0.00000000000E+00 -0.00000000000E+00 -0.32924720701E+02  0.32924720701E+02  0.00000000000E+00 0. -1.
          3    1    1    2  501    0 -0.16996610063E+02  0.17880712103E+02 -0.24623480299E+02  0.34855708299E+02  0.00000000000E+00 0. -1.
         -3    1    1    2    0  502  0.16996610063E+02 -0.17880712103E+02  0.44584140973E+02  0.50954393778E+02  0.00000000000E+00 0.  1.
<mgrwt>
<rscale>  2 0.24669913E+02</rscale>
<asrwt>0</asrwt>
<pdfrwt beam="1">  1       21 0.81362125E-02 0.24669913E+02</pdfrwt>
<pdfrwt beam="2">  1       21 0.50653417E-02 0.24669913E+02</pdfrwt>
<totfact> 0.23289283E+07</totfact>
</mgrwt>
</event>
<event>
 4    1  0.7424968E+004  0.2366612E+02  0.7546771E-02  0.1680935E+00
         21   -1    0    0  503  502  0.00000000000E+00  0.00000000000E+00  0.63454777724E+02  0.63454777724E+02  0.00000000000E+00 0.  1.
         21   -1    0    0  501  503 -0.00000000000E+00 -0.00000000000E+00 -0.93642074167E+01  0.93642074167E+01  0.00000000000E+00 0.  1.
          1    1    1    2  501    0 -0.21393502590E+02  0.10119446505E+02  0.35769818971E+02  0.42890151549E+02  0.00000000000E+00 0. -1.
         -1    1    1    2    0  502  0.21393502590E+02 -0.10119446505E+02  0.18320751336E+02  0.29928833592E+02  0.00000000000E+00 0.  1.
<mgrwt>
<rscale>  2 0.23666118E+02</rscale>
<asrwt>0</asrwt>
<pdfrwt beam="1">  1       21 0.97622732E-02 0.23666118E+02</pdfrwt>
<pdfrwt beam="2">  1       21 0.14406473E-02 0.23666118E+02</pdfrwt>
<totfact> 0.12068892E+08</totfact>
</mgrwt>
</event>
<event>
 4    1  0.7424968E+004  0.2483131E+02  0.7546771E-02  0.1663437E+00
         21   -1    0    0  503  502  0.00000000000E+00  0.00000000000E+00  0.26268812462E+01  0.26268812462E+01  0.00000000000E+00 0.  1.
         21   -1    0    0  501  503 -0.00000000000E+00 -0.00000000000E+00 -0.26221532070E+03  0.26221532070E+03  0.00000000000E+00 0.  1.
          5    1    1    2  501    0 -0.71754012519E+01  0.23771990442E+02 -0.86917610309E+02  0.90395049060E+02  0.00000000000E+00 0. -1.
         -5    1    1    2    0  502  0.71754012519E+01 -0.23771990442E+02 -0.17267082915E+03  0.17444715289E+03  0.00000000000E+00 0.  1.
<mgrwt>
<rscale>  2 0.24831309E+02</rscale>
<asrwt>0</asrwt>
<pdfrwt beam="1">  1       21 0.40413544E-03 0.24831309E+02</pdfrwt>
<pdfrwt beam="2">  1       21 0.40340832E-01 0.24831309E+02</pdfrwt>
<totfact> 0.67613429E+07</totfact>
</mgrwt>
</event>
<event>
 4    1  0.7424968E+004  0.2108779E+02  0.7546771E-02  0.1724523E+00
         21   -1    0    0  503  502  0.00000000000E+00  0.00000000000E+00  0.17312019860E+01  0.17312019860E+01  0.00000000000E+00 0.  1.
         21   -1    0    0  501  503 -0.00000000000E+00 -0.00000000000E+00 -0.29251924176E+03  0.29251924176E+03  0.00000000000E+00 0.  1.
          5    1    1    2  501    0  0.34513532686E+01 -0.20803440642E+02 -0.94033301262E+02  0.96368857668E+02  0.00000000000E+00 0. -1.
         -5    1    1    2    0  502 -0.34513532686E+01  0.20803440642E+02 -0.19675473851E+03  0.19788158608E+03  0.00000000000E+00 0.  1.
<mgrwt>
<rscale>  2 0.21087792E+02</rscale>
<asrwt>0</asrwt>
<pdfrwt beam="1">  1       21 0.26633871E-03 0.21087792E+02</pdfrwt>
<pdfrwt beam="2">  1       21 0.45002970E-01 0.21087792E+02</pdfrwt>
<totfact> 0.96840655E+07</totfact>
</mgrwt>
</event>
<event>
 4    1  0.7424968E+004  0.2612010E+02  0.7546771E-02  0.1645416E+00
         21   -1    0    0  503  502  0.00000000000E+00  0.00000000000E+00  0.11446256941E+02  0.11446256941E+02  0.00000000000E+00 0. -1.
         21   -1    0    0  501  503 -0.00000000000E+00 -0.00000000000E+00 -0.60177636862E+02  0.60177636862E+02  0.00000000000E+00 0. -1.
          5    1    1    2  501    0  0.15708426508E+02  0.20868757272E+02 -0.27857624735E+02  0.38187785342E+02  0.00000000000E+00 0. -1.
         -5    1    1    2    0  502 -0.15708426508E+02 -0.20868757272E+02 -0.20873755187E+02  0.33436108461E+02  0.00000000000E+00 0.  1.
<mgrwt>
<rscale>  2 0.26120101E+02</rscale>
<asrwt>0</asrwt>
<pdfrwt beam="1">  1       21 0.17609627E-02 0.26120101E+02</pdfrwt>
<pdfrwt beam="2">  1       21 0.92580976E-02 0.26120101E+02</pdfrwt>
<totfact> 0.99603821E+07</totfact>
</mgrwt>
</event>
<event>
 4    1  0.7424968E+004  0.2771280E+02  0.7546771E-02  0.1624840E+00
         21   -1    0    0  501  502  0.00000000000E+00  0.00000000000E+00  0.31342977084E+02  0.31342977084E+02  0.00000000000E+00 0. -1.
         21   -1    0    0  502  503 -0.00000000000E+00 -0.00000000000E+00 -0.27756917549E+02  0.27756917549E+02  0.00000000000E+00 0. -1.
          1    1    1    2  501    0 -0.17472278312E+02 -0.21510893728E+02 -0.83243933630E+01  0.28936042979E+02  0.00000000000E+00 0.  1.
         -1    1    1    2    0  503  0.17472278312E+02  0.21510893728E+02  0.11910452898E+02  0.30163851654E+02  0.00000000000E+00 0. -1.
<mgrwt>
<rscale>  2 0.27712796E+02</rscale>
<asrwt>0</asrwt>
<pdfrwt beam="1">  1       21 0.48219965E-02 0.27712796E+02</pdfrwt>
<pdfrwt beam="2">  1       21 0.42702950E-02 0.27712796E+02</pdfrwt>
<totfact> 0.73239406E+07</totfact>
</mgrwt>
</event>
<event>
 4    1  0.7424968E+004  0.2410036E+02  0.7546771E-02  0.1674270E+00
         21   -1    0    0  503  502  0.00000000000E+00  0.00000000000E+00  0.28239374089E+02  0.28239374089E+02  0.00000000000E+00 0.  1.
         21   -1    0    0  501  503 -0.00000000000E+00 -0.00000000000E+00 -0.32880122923E+02  0.32880122923E+02  0.00000000000E+00 0.  1.
          4    1    1    2  501    0 -0.21228715609E+02 -0.11409169282E+02 -0.21020713918E+02  0.31979648587E+02  0.00000000000E+00 0. -1.
         -4    1    1    2    0  502  0.21228715609E+02  0.11409169282E+02  0.16379965084E+02  0.29139848426E+02  0.00000000000E+00 0.  1.
<mgrwt>
<rscale>  2 0.24100363E+02</rscale>
<asrwt>0</asrwt>
<pdfrwt beam="1">  1       21 0.43445191E-02 0.24100363E+02</pdfrwt>
<pdfrwt beam="2">  1       21 0.50584805E-02 0.24100363E+02</pdfrwt>
<totfact> 0.63729960E+07</totfact>
</mgrwt>
</event>
<event>
 4    1  0.7424968E+004  0.2599874E+02  0.7546771E-02  0.1647058E+00
         21   -1    0    0  501  502  0.00000000000E+00  0.00000000000E+00  0.49682704572E+03  0.49682704572E+03  0.00000000000E+00 0.  1.
         21   -1    0    0  502  503 -0.00000000000E+00 -0.00000000000E+00 -0.13612677797E+01  0.13612677797E+01  0.00000000000E+00 0.  1.
          4    1    1    2  501    0 -0.15406936214E+02  0.20941847108E+02  0.25363740282E+03  0.25496640319E+03  0.00000000000E+00 0.  1.
         -4    1    1    2    0  503  0.15406936214E+02 -0.20941847108E+02  0.24182837512E+03  0.24322191031E+03  0.00000000000E+00 0. -1.
<mgrwt>
<rscale>  2 0.25998743E+02</rscale>
<asrwt>0</asrwt>
<pdfrwt beam="1">  1       21 0.76434785E-01 0.25998743E+02</pdfrwt>
<pdfrwt beam="2">  1       21 0.20942621E-03 0.25998743E+02</pdfrwt>
<totfact> 0.50144493E+07</totfact>
</mgrwt>
</event>
<event>
 4    1  0.7424968E+004  0.2385723E+02  0.7546771E-02  0.1677980E+00
         21   -1    0    0  501  502  0.00000000000E+00  0.00000000000E+00  0.22603699411E+01  0.22603699411E+01  0.00000000000E+00 0. -1.
         21   -1    0    0  502  503 -0.00000000000E+00 -0.00000000000E+00 -0.25193117704E+03  0.25193117704E+03  0.00000000000E+00 0. -1.
          1    1    1    2  501    0 -0.54009067651E+01  0.23237851410E+02 -0.12770416906E+03  0.12991351865E+03  0.00000000000E+00 0. -1.
         -1    1    1    2    0  503  0.54009067651E+01 -0.23237851410E+02 -0.12196663804E+03  0.12427802833E+03  0.00000000000E+00 0.  1.
<mgrwt>
<rscale>  2 0.23857232E+02</rscale>
<asrwt>0</asrwt>
<pdfrwt beam="1">  1       21 0.34774931E-03 0.23857232E+02</pdfrwt>
<pdfrwt beam="2">  1       21 0.38758633E-01 0.23857232E+02</pdfrwt>
<totfact> 0.90008238E+07</totfact>
</mgrwt>
</event>
<event>
 4    1  0.7424968E+004  0.2032268E+02  0.7546771E-02  0.1738986E+00
         21   -1    0    0  503  502  0.00000000000E+00  0.00000000000E+00  0.22379044070E+03  0.22379044070E+03  0.00000000000E+00 0. -1.
         21   -1    0    0  501  503 -0.00000000000E+00 -0.00000000000E+00 -0.20909450484E+01  0.20909450484E+01  0.00000000000E+00 0. -1.
          4    1    1    2  501    0 -0.12313522098E+02 -0.16167515990E+02  0.14954271148E+03  0.15091730834E+03  0.00000000000E+00 0. -1.
         -4    1    1    2    0  502  0.12313522098E+02  0.16167515990E+02  0.72156784173E+02  0.74964077410E+02  0.00000000000E+00 0.  1.
<mgrwt>
<rscale>  2 0.20322682E+02</rscale>
<asrwt>0</asrwt>
<pdfrwt beam="1">  1       21 0.34429280E-01 0.20322682E+02</pdfrwt>
<pdfrwt beam="2">  1       21 0.32168403E-03 0.20322682E+02</pdfrwt>
<totfact> 0.12033092E+08</totfact>
</mgrwt>
</event>
<event>
 4    1  0.7424968E+004  0.3162722E+02  0.7546771E-02  0.1580768E+00
         21   -1    0    0  503  502  0.00000000000E+00  0.00000000000E+00  0.92284374117E+01  0.92284374117E+01  0.00000000000E+00 0.  1.
         21   -1    0    0  501  503 -0.00000000000E+00 -0.00000000000E+00 -0.11664788217E+03  0.11664788217E+03  0.00000000000E+00 0.  1.
          5    1    1    2  501    0 -0.30960854700E+02  0.64580554121E+01 -0.70454506012E+02  0.77227705008E+02  0.00000000000E+00 0. -1.
         -5    1    1    2    0  502  0.30960854700E+02 -0.64580554121E+01 -0.36964938749E+02  0.48648614576E+02  0.00000000000E+00 0.  1.
<mgrwt>
<rscale>  2 0.31627219E+02</rscale>
<asrwt>0</asrwt>
<pdfrwt beam="1">  1       21 0.14197596E-02 0.31627219E+02</pdfrwt>
<pdfrwt beam="2">  1       21 0.17945828E-01 0.31627219E+02</pdfrwt>
<totfact> 0.47078669E+07</totfact>
</mgrwt>
</event>
<event>
 4    1  0.7424968E+004  0.2366657E+02  0.7546771E-02  0.1680928E+00
         21   -1    0    0  503  502  0.00000000000E+00  0.00000000000E+00  0.54128644374E+03  0.54128644374E+03  0.00000000000E+00 0.  1.
         21   -1    0    0  501  503 -0.00000000000E+00 -0.00000000000E+00 -0.22050714260E+01  0.22050714260E+01  0.00000000000E+00 0.  1.
          2    1    1    2  501    0 -0.37640792797E+01 -0.23365325459E+02  0.71570225502E+02  0.75381721293E+02  0.00000000000E+00 0.  1.
         -2    1    1    2    0  502  0.37640792797E+01  0.23365325459E+02  0.46751114681E+03  0.46810979387E+03  0.00000000000E+00 0. -1.
<mgrwt>
<rscale>  2 0.23666574E+02</rscale>
<asrwt>0</asrwt>
<pdfrwt beam="1">  1       21 0.83274732E-01 0.23666574E+02</pdfrwt>
<pdfrwt beam="2">  1       21 0.33924219E-03 0.23666574E+02</pdfrwt>
<totfact> 0.20351977E+07</totfact>
</mgrwt>
</event>
<event>
 4    1  0.7424968E+004  0.2092399E+02  0.7546771E-02  0.1727554E+00
         21   -1    0    0  501  502  0.00000000000E+00  0.00000000000E+00  0.46192948495E+02  0.46192948495E+02  0.00000000000E+00 0.  1.
         21   -1    0    0  502  503 -0.00000000000E+00 -0.00000000000E+00 -0.10104557402E+02  0.10104557402E+02  0.00000000000E+00 0.  1.
          4    1    1    2  501    0 -0.29076310741E+01 -0.20720983709E+02  0.25053994512E+02  0.32642244490E+02  0.00000000000E+00 0. -1.
         -4    1    1    2    0  503  0.29076310741E+01  0.20720983709E+02  0.11034396581E+02  0.23655261407E+02  0.00000000000E+00 0.  1.
<mgrwt>
<rscale>  2 0.20923993E+02</rscale>
<asrwt>0</asrwt>
<pdfrwt beam="1">  1       21 0.71066074E-02 0.20923993E+02</pdfrwt>
<pdfrwt beam="2">  1       21 0.15545473E-02 0.20923993E+02</pdfrwt>
<totfact> 0.17401397E+08</totfact>
</mgrwt>
</event>
<event>
 4    1  0.7424968E+004  0.2494380E+02  0.7546771E-02  0.1661810E+00
         21   -1    0    0  501  502  0.00000000000E+00  0.00000000000E+00  0.69982510101E+01  0.69982510101E+01  0.00000000000E+00 0.  1.
         21   -1    0    0  502  503 -0.00000000000E+00 -0.00000000000E+00 -0.90083393481E+02  0.90083393481E+02  0.00000000000E+00 0.  1.
          3    1    1    2  501    0  0.24911490407E+02  0.12690892146E+01 -0.47089797195E+02  0.53288290849E+02  0.00000000000E+00 0.  1.
         -3    1    1    2    0  503 -0.24911490407E+02 -0.12690892146E+01 -0.35995345276E+02  0.43793353642E+02  0.00000000000E+00 0. -1.
<mgrwt>
<rscale>  2 0.24943796E+02</rscale>
<asrwt>0</asrwt>
<pdfrwt beam="1">  1       21 0.10766540E-02 0.24943796E+02</pdfrwt>
<pdfrwt beam="2">  1       21 0.13858983E-01 0.24943796E+02</pdfrwt>
<totfact> 0.10584030E+08</totfact>
</mgrwt>
</event>
<event>
 4    1  0.7424968E+004  0.2521935E+02  0.7546771E-02  0.1657871E+00
         21   -1    0    0  503  502  0.00000000000E+00  0.00000000000E+00  0.35828515695E+02  0.35828515695E+02  0.00000000000E+00 0. -1.
         21   -1    0    0  501  503 -0.00000000000E+00 -0.00000000000E+00 -0.19067345519E+02  0.19067345519E+02  0.00000000000E+00 0. -1.
          3    1    1    2  501    0  0.18124828177E+02  0.17535859143E+02  0.11705070092E+01  0.25246501520E+02  0.00000000000E+00 0. -1.
         -3    1    1    2    0  502 -0.18124828177E+02 -0.17535859143E+02  0.15590663167E+02  0.29649359695E+02  0.00000000000E+00 0.  1.
<mgrwt>
<rscale>  2 0.25219353E+02</rscale>
<asrwt>0</asrwt>
<pdfrwt beam="1">  1       21 0.55120793E-02 0.25219353E+02</pdfrwt>
<pdfrwt beam="2">  1       21 0.29334378E-02 0.25219353E+02</pdfrwt>
<totfact> 0.10425264E+08</totfact>
</mgrwt>
</event>
<event>
 4    1  0.7424968E+004  0.2539913E+02  0.7546771E-02  0.1655334E+00
         21   -1    0    0  501  502  0.00000000000E+00  0.00000000000E+00  0.33584525129E+01  0.33584525129E+01  0.00000000000E+00 0.  1.
         21   -1    0    0  502  503 -0.00000000000E+00 -0.00000000000E+00 -0.19404911776E+03  0.19404911776E+03  0.00000000000E+00 0.  1.
          4    1    1    2  501    0  0.21294013639E+01 -0.25309707592E+02 -0.10527012360E+03  0.10829087944E+03  0.00000000000E+00 0.  1.
         -4    1    1    2    0  503 -0.21294013639E+01  0.25309707592E+02 -0.85420541645E+02  0.89116690825E+02  0.00000000000E+00 0. -1.
<mgrwt>
<rscale>  2 0.25399127E+02</rscale>
<asrwt>0</asrwt>
<pdfrwt beam="1">  1       21 0.51668495E-03 0.25399127E+02</pdfrwt>
<pdfrwt beam="2">  1       21 0.29853713E-01 0.25399127E+02</pdfrwt>
<totfact> 0.82757477E+07</totfact>
</mgrwt>
</event>
<event>
 4    1  0.7424968E+004  0.4091528E+02  0.7546771E-02  0.1501582E+00
         21   -1    0    0  503  502  0.00000000000E+00  0.00000000000E+00  0.25007124958E+03  0.25007124958E+03  0.00000000000E+00 0.  1.
         21   -1    0    0  501  503 -0.00000000000E+00 -0.00000000000E+00 -0.10410064514E+02  0.10410064514E+02  0.00000000000E+00 0.  1.
          2    1    1    2  501    0 -0.81486685232E+01 -0.40095628927E+02  0.42019408888E+02  0.58648878771E+02  0.00000000000E+00 0.  1.
         -2    1    1    2    0  502  0.81486685232E+01  0.40095628927E+02  0.19764177618E+03  0.20183243532E+03  0.00000000000E+00 0. -1.
<mgrwt>
<rscale>  2 0.40915281E+02</rscale>
<asrwt>0</asrwt>
<pdfrwt beam="1">  1       21 0.38472495E-01 0.40915281E+02</pdfrwt>
<pdfrwt beam="2">  1       21 0.16015486E-02 0.40915281E+02</pdfrwt>
<totfact> 0.10123691E+07</totfact>
</mgrwt>
</event>
<event>
 4    1  0.7424968E+004  0.2266120E+02  0.7546771E-02  0.1697062E+00
         21   -1    0    0  503  502  0.00000000000E+00  0.00000000000E+00  0.25465613898E+02  0.25465613898E+02  0.00000000000E+00 0.  1.
         21   -1    0    0  501  503 -0.00000000000E+00 -0.00000000000E+00 -0.20948307003E+02  0.20948307003E+02  0.00000000000E+00 0.  1.
          5    1    1    2  501    0 -0.64721189127E+01  0.21717308682E+02 -0.22271336428E+01  0.22770374259E+02  0.00000000000E+00 0.  1.
         -5    1    1    2    0  502  0.64721189127E+01 -0.21717308682E+02  0.67444405383E+01  0.23643546642E+02  0.00000000000E+00 0. -1.
<mgrwt>
<rscale>  2 0.22661196E+02</rscale>
<asrwt>0</asrwt>
<pdfrwt beam="1">  1       21 0.39177868E-02 0.22661196E+02</pdfrwt>
<pdfrwt beam="2">  1       21 0.32228165E-02 0.22661196E+02</pdfrwt>
<totfact> 0.15012543E+08</totfact>
</mgrwt>
</event>
<event>
 4    1  0.7424968E+004  0.2501929E+02  0.7546771E-02  0.1660725E+00
         21   -1    0    0  503  502  0.00000000000E+00  0.00000000000E+00  0.11176553206E+02  0.11176553206E+02  0.00000000000E+00 0. -1.
         21   -1    0    0  501  503 -0.00000000000E+00 -0.00000000000E+00 -0.82280368375E+02  0.82280368375E+02  0.00000000000E+00 0. -1.
          5    1    1    2  501    0 -0.24752233525E+02  0.36457667484E+01 -0.61957239796E+02  0.66818143066E+02  0.00000000000E+00 0. -1.
         -5    1    1    2    0  502  0.24752233525E+02 -0.36457667484E+01 -0.91465753727E+01  0.26638778514E+02  0.00000000000E+00 0.  1.
<mgrwt>
<rscale>  2 0.25019286E+02</rscale>
<asrwt>0</asrwt>
<pdfrwt beam="1">  1       21 0.17194697E-02 0.25019286E+02</pdfrwt>
<pdfrwt beam="2">  1       21 0.12658518E-01 0.25019286E+02</pdfrwt>
<totfact> 0.60606111E+07</totfact>
</mgrwt>
</event>
<event>
 4    1  0.7424968E+004  0.2294390E+02  0.7546771E-02  0.1692421E+00
         21   -1    0    0  501  502  0.00000000000E+00  0.00000000000E+00  0.53269915201E+02  0.53269915201E+02  0.00000000000E+00 0.  1.
         21   -1    0    0  502  503 -0.00000000000E+00 -0.00000000000E+00 -0.12252873992E+02  0.12252873992E+02  0.00000000000E+00 0.  1.
          3    1    1    2  501    0  0.22322849025E+02  0.53021804183E+01  0.34919100726E+02  0.41782368306E+02  0.00000000000E+00 0. -1.
         -3    1    1    2    0  503 -0.22322849025E+02 -0.53021804183E+01  0.60979404831E+01  0.23740420887E+02  0.00000000000E+00 0.  1.
<mgrwt>
<rscale>  2 0.22943903E+02</rscale>
<asrwt>0</asrwt>
<pdfrwt beam="1">  1       21 0.81953715E-02 0.22943903E+02</pdfrwt>
<pdfrwt beam="2">  1       21 0.18850576E-02 0.22943903E+02</pdfrwt>
<totfact> 0.10581294E+08</totfact>
</mgrwt>
</event>
<event>
 4    1  0.7424968E+004  0.2938530E+02  0.7546771E-02  0.1604984E+00
         21   -1    0    0  503  502  0.00000000000E+00  0.00000000000E+00  0.38063889323E+03  0.38063889323E+03  0.00000000000E+00 0. -1.
         21   -1    0    0  501  503 -0.00000000000E+00 -0.00000000000E+00 -0.24945565197E+01  0.24945565197E+01  0.00000000000E+00 0. -1.
          5    1    1    2  501    0  0.37140217239E+01  0.29149646817E+02  0.24673423186E+03  0.24847792062E+03  0.00000000000E+00 0. -1.
         -5    1    1    2    0  502 -0.37140217239E+01 -0.29149646817E+02  0.13141010486E+03  0.13465552913E+03  0.00000000000E+00 0.  1.
<mgrwt>
<rscale>  2 0.29385300E+02</rscale>
<asrwt>0</asrwt>
<pdfrwt beam="1">  1       21 0.58559784E-01 0.29385300E+02</pdfrwt>
<pdfrwt beam="2">  1       21 0.38377823E-03 0.29385300E+02</pdfrwt>
<totfact> 0.36575292E+07</totfact>
</mgrwt>
</event>
<event>
 4    1  0.7424968E+004  0.2239506E+02  0.7546771E-02  0.1701508E+00
         21   -1    0    0  501  502  0.00000000000E+00  0.00000000000E+00  0.10152452556E+01  0.10152452556E+01  0.00000000000E+00 0. -1.
         21   -1    0    0  502  503 -0.00000000000E+00 -0.00000000000E+00 -0.57579702253E+03  0.57579702253E+03  0.00000000000E+00 0. -1.
          1    1    1    2  501    0  0.41827833688E+01  0.22000983041E+02 -0.39608804965E+03  0.39672065992E+03  0.00000000000E+00 0. -1.
         -1    1    1    2    0  503 -0.41827833688E+01 -0.22000983041E+02 -0.17869372762E+03  0.18009160786E+03  0.00000000000E+00 0.  1.
<mgrwt>
<rscale>  2 0.22395065E+02</rscale>
<asrwt>0</asrwt>
<pdfrwt beam="1">  1       21 0.15619142E-03 0.22395065E+02</pdfrwt>
<pdfrwt beam="2">  1       21 0.88584247E-01 0.22395065E+02</pdfrwt>
<totfact> 0.54264867E+07</totfact>
</mgrwt>
</event>
<event>
 4    1  0.7424968E+004  0.3138032E+02  0.7546771E-02  0.1583314E+00
         21   -1    0    0  501  502  0.00000000000E+00  0.00000000000E+00  0.86079760641E+01  0.86079760641E+01  0.00000000000E+00 0.  1.
         21   -1    0    0  502  503 -0.00000000000E+00 -0.00000000000E+00 -0.15261814179E+03  0.15261814179E+03  0.00000000000E+00 0.  1.
          2    1    1    2  501    0 -0.28063846184E+02  0.14040839879E+02 -0.31663265158E+02  0.44578997383E+02  0.00000000000E+00 0.  1.
         -2    1    1    2    0  503  0.28063846184E+02 -0.14040839879E+02 -0.11234690056E+03  0.11664712047E+03  0.00000000000E+00 0. -1.
<mgrwt>
<rscale>  2 0.31380323E+02</rscale>
<asrwt>0</asrwt>
<pdfrwt beam="1">  1       21 0.13243040E-02 0.31380323E+02</pdfrwt>
<pdfrwt beam="2">  1       21 0.23479714E-01 0.31380323E+02</pdfrwt>
<totfact> 0.32480540E+07</totfact>
</mgrwt>
</event>
<event>
 4    1  0.7424968E+004  0.3136776E+02  0.7546771E-02  0.1583444E+00
         21   -1    0    0  501  502  0.00000000000E+00  0.00000000000E+00  0.29289415767E+02  0.29289415767E+02  0.00000000000E+00 0.  1.
         21   -1    0    0  502  503 -0.00000000000E+00 -0.00000000000E+00 -0.33923051141E+02  0.33923051141E+02  0.00000000000E+00 0.  1.
          5    1    1    2  501    0 -0.25460422565E+02  0.18322209363E+02  0.79798684425E+00  0.31377910322E+02  0.00000000000E+00 0. -1.
         -5    1    1    2    0  503  0.25460422565E+02 -0.18322209363E+02 -0.54316222182E+01  0.31834556587E+02  0.00000000000E+00 0.  1.
<mgrwt>
<rscale>  2 0.31367762E+02</rscale>
<asrwt>0</asrwt>
<pdfrwt beam="1">  1       21 0.45060640E-02 0.31367762E+02</pdfrwt>
<pdfrwt beam="2">  1       21 0.52189309E-02 0.31367762E+02</pdfrwt>
<totfact> 0.60943918E+07</totfact>
</mgrwt>
</event>
<event>
 4    1  0.7424968E+004  0.2097705E+02  0.7546771E-02  0.1726568E+00
         21   -1    0    0  503  502  0.00000000000E+00  0.00000000000E+00  0.82947931285E+00  0.82947931285E+00  0.00000000000E+00 0. -1.
         21   -1    0    0  501  503 -0.00000000000E+00 -0.00000000000E+00 -0.54526158462E+03  0.54526158462E+03  0.00000000000E+00 0. -1.
          5    1    1    2  501    0  0.20925790694E+02 -0.14655051536E+01 -0.31714651168E+03  0.31783949769E+03  0.00000000000E+00 0.  1.
         -5    1    1    2    0  502 -0.20925790694E+02  0.14655051536E+01 -0.22728559362E+03  0.22825156624E+03  0.00000000000E+00 0. -1.
<mgrwt>
<rscale>  2 0.20977045E+02</rscale>
<asrwt>0</asrwt>
<pdfrwt beam="1">  1       21 0.12761206E-03 0.20977045E+02</pdfrwt>
<pdfrwt beam="2">  1       21 0.83886494E-01 0.20977045E+02</pdfrwt>
<totfact> 0.80059519E+07</totfact>
</mgrwt>
</event>
<event>
 4    1  0.7424968E+004  0.2124761E+02  0.7546771E-02  0.1721599E+00
         21   -1    0    0  501  502  0.00000000000E+00  0.00000000000E+00  0.24429083408E+03  0.24429083408E+03  0.00000000000E+00 0.  1.
         21   -1    0    0  502  503 -0.00000000000E+00 -0.00000000000E+00 -0.21766099196E+01  0.21766099196E+01  0.00000000000E+00 0.  1.
          3    1    1    2  501    0 -0.21177931476E+02  0.17193392970E+01  0.73177719781E+02  0.76199997254E+02  0.00000000000E+00 0.  1.
         -3    1    1    2    0  503  0.21177931476E+02 -0.17193392970E+01  0.16893650438E+03  0.17026744674E+03  0.00000000000E+00 0. -1.
<mgrwt>
<rscale>  2 0.21247609E+02</rscale>
<asrwt>0</asrwt>
<pdfrwt beam="1">  1       21 0.37583184E-01 0.21247609E+02</pdfrwt>
<pdfrwt beam="2">  1       21 0.33486326E-03 0.21247609E+02</pdfrwt>
<totfact> 0.97711143E+07</totfact>
</mgrwt>
</event>
<event>
 4    1  0.7424968E+004  0.2771070E+02  0.7546771E-02  0.1624866E+00
         21   -1    0    0  501  502  0.00000000000E+00  0.00000000000E+00  0.55746860079E+01  0.55746860079E+01  0.00000000000E+00 0.  1.
         21   -1    0    0  502  503 -0.00000000000E+00 -0.00000000000E+00 -0.13859837104E+03  0.13859837104E+03  0.00000000000E+00 0.  1.
          1    1    1    2  501    0  0.16110397333E+02 -0.22546355598E+02 -0.72169524307E+02  0.77306683357E+02  0.00000000000E+00 0.  1.
         -1    1    1    2    0  503 -0.16110397333E+02  0.22546355598E+02 -0.60854160722E+02  0.66866373688E+02  0.00000000000E+00 0. -1.
<mgrwt>
<rscale>  2 0.27710703E+02</rscale>
<asrwt>0</asrwt>
<pdfrwt beam="1">  1       21 0.85764403E-03 0.27710703E+02</pdfrwt>
<pdfrwt beam="2">  1       21 0.21322826E-01 0.27710703E+02</pdfrwt>
<totfact> 0.72592510E+07</totfact>
</mgrwt>
</event>
<event>
 4    1  0.7424968E+004  0.2187545E+02  0.7546771E-02  0.1710415E+00
         21   -1    0    0  501  502  0.00000000000E+00  0.00000000000E+00  0.21271769263E+01  0.21271769263E+01  0.00000000000E+00 0. -1.
         21   -1    0    0  502  503 -0.00000000000E+00 -0.00000000000E+00 -0.22510757412E+03  0.22510757412E+03  0.00000000000E+00 0. -1.
          2    1    1    2  501    0  0.21836869422E+02 -0.12986226754E+01 -0.10860702836E+03  0.11078818482E+03  0.00000000000E+00 0.  1.
         -2    1    1    2    0  503 -0.21836869422E+02  0.12986226754E+01 -0.11437336884E+03  0.11644656623E+03  0.00000000000E+00 0. -1.
<mgrwt>
<rscale>  2 0.21875449E+02</rscale>
<asrwt>0</asrwt>
<pdfrwt beam="1">  1       21 0.32725807E-03 0.21875449E+02</pdfrwt>
<pdfrwt beam="2">  1       21 0.34631926E-01 0.21875449E+02</pdfrwt>
<totfact> 0.11852010E+08</totfact>
</mgrwt>
</event>
<event>
 4    1  0.7424968E+004  0.2183197E+02  0.7546771E-02  0.1711174E+00
         21   -1    0    0  501  502  0.00000000000E+00  0.00000000000E+00  0.11008498583E+03  0.11008498583E+03  0.00000000000E+00 0.  1.
         21   -1    0    0  502  503 -0.00000000000E+00 -0.00000000000E+00 -0.80764964485E+01  0.80764964485E+01  0.00000000000E+00 0.  1.
          3    1    1    2  501    0 -0.50816724810E+01 -0.21232321847E+02  0.10763637801E+02  0.24341133600E+02  0.00000000000E+00 0.  1.
         -3    1    1    2    0  503  0.50816724810E+01  0.21232321847E+02  0.91244851580E+02  0.93820348678E+02  0.00000000000E+00 0. -1.
<mgrwt>
<rscale>  2 0.21831969E+02</rscale>
<asrwt>0</asrwt>
<pdfrwt beam="1">  1       21 0.16936151E-01 0.21831969E+02</pdfrwt>
<pdfrwt beam="2">  1       21 0.12425380E-02 0.21831969E+02</pdfrwt>
<totfact> 0.58425696E+07</totfact>
</mgrwt>
</event>
<event>
 4    1  0.7424968E+004  0.2281738E+02  0.7546771E-02  0.1694488E+00
         21   -1    0    0  501  502  0.00000000000E+00  0.00000000000E+00  0.39908107829E+02  0.39908107829E+02  0.00000000000E+00 0. -1.
         21   -1    0    0  502  503 -0.00000000000E+00 -0.00000000000E+00 -0.15217364733E+02  0.15217364733E+02  0.00000000000E+00 0. -1.
          1    1    1    2  501    0  0.37050724455E+01 -0.22514557855E+02  0.22757506451E+02  0.32226339803E+02  0.00000000000E+00 0.  1.
         -1    1    1    2    0  503 -0.37050724455E+01  0.22514557855E+02  0.19332366449E+01  0.22899132760E+02  0.00000000000E+00 0. -1.
<mgrwt>
<rscale>  2 0.22817381E+02</rscale>
<asrwt>0</asrwt>
<pdfrwt beam="1">  1       21 0.61397089E-02 0.22817381E+02</pdfrwt>
<pdfrwt beam="2">  1       21 0.23411330E-02 0.22817381E+02</pdfrwt>
<totfact> 0.12091340E+08</totfact>
</mgrwt>
</event>
<event>
 4    1  0.7424968E+004  0.2224917E+02  0.7546771E-02  0.1703978E+00
         21   -1    0    0  501  502  0.00000000000E+00  0.00000000000E+00  0.44486651474E+03  0.44486651474E+03  0.00000000000E+00 0.  1.
         21   -1    0    0  502  503 -0.00000000000E+00 -0.00000000000E+00 -0.11808791028E+01  0.11808791028E+01  0.00000000000E+00 0.  1.
          2    1    1    2  501    0 -0.19554259821E+02  0.10613972142E+02  0.27541171559E+03  0.27630895491E+03  0.00000000000E+00 0.  1.
         -2    1    1    2    0  503  0.19554259821E+02 -0.10613972142E+02  0.16827392005E+03  0.16973843893E+03  0.00000000000E+00 0. -1.
<mgrwt>
<rscale>  2 0.22249168E+02</rscale>
<asrwt>0</asrwt>
<pdfrwt beam="1">  1       21 0.68440868E-01 0.22249168E+02</pdfrwt>
<pdfrwt beam="2">  1       21 0.18167406E-03 0.22249168E+02</pdfrwt>
<totfact> 0.74671239E+07</totfact>
</mgrwt>
</event>
<event>
 4    1  0.7424968E+004  0.2306059E+02  0.7546771E-02  0.1690530E+00
         21   -1    0    0  503  502  0.00000000000E+00  0.00000000000E+00  0.26973876329E+03  0.26973876329E+03  0.00000000000E+00 0. -1.
         21   -1    0    0  501  503 -0.00000000000E+00 -0.00000000000E+00 -0.20311260892E+01  0.20311260892E+01  0.00000000000E+00 0. -1.
          2    1    1    2  501    0 -0.16867711247E+02  0.15724850293E+02  0.11057223119E+03  0.11295135639E+03  0.00000000000E+00 0. -1.
         -2    1    1    2    0  502  0.16867711247E+02 -0.15724850293E+02  0.15713540601E+03  0.15881853299E+03  0.00000000000E+00 0.  1.
<mgrwt>
<rscale>  2 0.23060585E+02</rscale>
<asrwt>0</asrwt>
<pdfrwt beam="1">  1       21 0.41498243E-01 0.23060585E+02</pdfrwt>
<pdfrwt beam="2">  1       21 0.31248115E-03 0.23060585E+02</pdfrwt>
<totfact> 0.91699944E+07</totfact>
</mgrwt>
</event>
<event>
 4    1  0.7424968E+004  0.2293228E+02  0.7546771E-02  0.1692610E+00
         21   -1    0    0  501  502  0.00000000000E+00  0.00000000000E+00  0.39482089078E+01  0.39482089078E+01  0.00000000000E+00 0. -1.
         21   -1    0    0  502  503 -0.00000000000E+00 -0.00000000000E+00 -0.13321592075E+03  0.13321592075E+03  0.00000000000E+00 0. -1.
          2    1    1    2  501    0  0.13892319897E+02 -0.18245349147E+02 -0.63815073577E+02  0.67810419061E+02  0.00000000000E+00 0.  1.
         -2    1    1    2    0  503 -0.13892319897E+02  0.18245349147E+02 -0.65452638263E+02  0.69353710595E+02  0.00000000000E+00 0. -1.
<mgrwt>
<rscale>  2 0.22932277E+02</rscale>
<asrwt>0</asrwt>
<pdfrwt beam="1">  1       21 0.60741689E-03 0.22932277E+02</pdfrwt>
<pdfrwt beam="2">  1       21 0.20494752E-01 0.22932277E+02</pdfrwt>
<totfact> 0.12406361E+08</totfact>
</mgrwt>
</event>
<event>
 4    1  0.7424968E+004  0.2460012E+02  0.7546771E-02  0.1666813E+00
         21   -1    0    0  501  502  0.00000000000E+00  0.00000000000E+00  0.43552892249E+02  0.43552892249E+02  0.00000000000E+00 0. -1.
         21   -1    0    0  502  503 -0.00000000000E+00 -0.00000000000E+00 -0.16037416090E+02  0.16037416090E+02  0.00000000000E+00 0. -1.
          4    1    1    2  501    0 -0.81140175261E+01 -0.23223445121E+02  0.24647902359E+02  0.34823623797E+02  0.00000000000E+00 0.  1.
         -4    1    1    2    0  503  0.81140175261E+01  0.23223445121E+02  0.28675737999E+01  0.24766684542E+02  0.00000000000E+00 0. -1.
<mgrwt>
<rscale>  2 0.24600116E+02</rscale>
<asrwt>0</asrwt>
<pdfrwt beam="1">  1       21 0.67004449E-02 0.24600116E+02</pdfrwt>
<pdfrwt beam="2">  1       21 0.24672948E-02 0.24600116E+02</pdfrwt>
<totfact> 0.98941866E+07</totfact>
</mgrwt>
</event>
<event>
 4    1  0.7424968E+004  0.2049724E+02  0.7546771E-02  0.1735617E+00
         21   -1    0    0  503  502  0.00000000000E+00  0.00000000000E+00  0.96637048073E+00  0.96637048073E+00  0.00000000000E+00 0.  1.
         21   -1    0    0  501  503 -0.00000000000E+00 -0.00000000000E+00 -0.50086819799E+03  0.50086819799E+03  0.00000000000E+00 0.  1.
          3    1    1    2  501    0  0.66261456126E+01  0.19396679441E+02 -0.15879094642E+03  0.16010840591E+03  0.00000000000E+00 0.  1.
         -3    1    1    2    0  502 -0.66261456126E+01 -0.19396679441E+02 -0.34111088109E+03  0.34172616256E+03  0.00000000000E+00 0. -1.
<mgrwt>
<rscale>  2 0.20497243E+02</rscale>
<asrwt>0</asrwt>
<pdfrwt beam="1">  1       21 0.14867262E-03 0.20497243E+02</pdfrwt>
<pdfrwt beam="2">  1       21 0.77056521E-01 0.20497243E+02</pdfrwt>
<totfact> 0.76428008E+07</totfact>
</mgrwt>
</event>
<event>
 4    1  0.7424968E+004  0.2497429E+02  0.7546771E-02  0.1661371E+00
         21   -1    0    0  503  502  0.00000000000E+00  0.00000000000E+00  0.39004805426E+03  0.39004805426E+03  0.00000000000E+00 0. -1.
         21   -1    0    0  501  503 -0.00000000000E+00 -0.00000000000E+00 -0.19637036110E+01  0.19637036110E+01  0.00000000000E+00 0. -1.
          1    1    1    2  501    0 -0.74479994353E+01 -0.23837840021E+02  0.27850346150E+03  0.27962098165E+03  0.00000000000E+00 0. -1.
         -1    1    1    2    0  502  0.74479994353E+01  0.23837840021E+02  0.10958088915E+03  0.11239077622E+03  0.00000000000E+00 0.  1.
<mgrwt>
<rscale>  2 0.24974293E+02</rscale>
<asrwt>0</asrwt>
<pdfrwt beam="1">  1       21 0.60007331E-01 0.24974293E+02</pdfrwt>
<pdfrwt beam="2">  1       21 0.30210856E-03 0.24974293E+02</pdfrwt>
<totfact> 0.47870450E+07</totfact>
</mgrwt>
</event>
<event>
 4    1  0.7424968E+004  0.1062173E+03  0.7546771E-02  0.1267740E+00
         21   -1    0    0  501  502  0.00000000000E+00  0.00000000000E+00  0.46098788107E+02  0.46098788107E+02  0.00000000000E+00 0.  1.
         21   -1    0    0  502  503 -0.00000000000E+00 -0.00000000000E+00 -0.25834029462E+03  0.25834029462E+03  0.00000000000E+00 0.  1.
          2    1    1    2  501    0 -0.54923360489E+02  0.90914980750E+02 -0.14104973670E+03  0.17657048868E+03  0.00000000000E+00 0.  1.
         -2    1    1    2    0  503  0.54923360489E+02 -0.90914980750E+02 -0.71191769812E+02  0.12786859404E+03  0.00000000000E+00 0. -1.
<mgrwt>
<rscale>  2 0.10621727E+03</rscale>
<asrwt>0</asrwt>
<pdfrwt beam="1">  1       21 0.70921214E-02 0.10621727E+03</pdfrwt>
<pdfrwt beam="2">  1       21 0.39744660E-01 0.10621727E+03</pdfrwt>
<totfact> 0.90350599E+05</totfact>
</mgrwt>
</event>
<event>
 4    1  0.7424968E+004  0.3766444E+02  0.7546771E-02  0.1526137E+00
         21   -1    0    0  503  502  0.00000000000E+00  0.00000000000E+00  0.49228661757E+02  0.49228661757E+02  0.00000000000E+00 0.  1.
         21   -1    0    0  501  503 -0.00000000000E+00 -0.00000000000E+00 -0.29910197562E+02  0.29910197562E+02  0.00000000000E+00 0.  1.
          3    1    1    2  501    0  0.30213939706E+02  0.22488392542E+02  0.20935257452E+01  0.37722576817E+02  0.00000000000E+00 0. -1.
         -3    1    1    2    0  502 -0.30213939706E+02 -0.22488392542E+02  0.17224938450E+02  0.41416282502E+02  0.00000000000E+00 0.  1.
<mgrwt>
<rscale>  2 0.37664439E+02</rscale>
<asrwt>0</asrwt>
<pdfrwt beam="1">  1       21 0.75736403E-02 0.37664439E+02</pdfrwt>
<pdfrwt beam="2">  1       21 0.46015689E-02 0.37664439E+02</pdfrwt>
<totfact> 0.33269156E+07</totfact>
</mgrwt>
</event>
<event>
 4    1  0.7424968E+004  0.3583625E+02  0.7546771E-02  0.1541297E+00
         21   -1    0    0  501  502  0.00000000000E+00  0.00000000000E+00  0.65112856861E+02  0.65112856861E+02  0.00000000000E+00 0.  1.
         21   -1    0    0  502  503 -0.00000000000E+00 -0.00000000000E+00 -0.20518334569E+02  0.20518334569E+02  0.00000000000E+00 0.  1.
          3    1    1    2  501    0 -0.34723541304E+02 -0.88607091096E+01  0.30725569177E+02  0.47204841784E+02  0.00000000000E+00 0. -1.
         -3    1    1    2    0  503  0.34723541304E+02  0.88607091096E+01  0.13868953114E+02  0.38426349646E+02  0.00000000000E+00 0.  1.
<mgrwt>
<rscale>  2 0.35836245E+02</rscale>
<asrwt>0</asrwt>
<pdfrwt beam="1">  1       21 0.10017362E-01 0.35836245E+02</pdfrwt>
<pdfrwt beam="2">  1       21 0.31566669E-02 0.35836245E+02</pdfrwt>
<totfact> 0.37767798E+07</totfact>
</mgrwt>
</event>
<event>
 4    1  0.7424968E+004  0.2239662E+02  0.7546771E-02  0.1701481E+00
         21   -1    0    0  501  502  0.00000000000E+00  0.00000000000E+00  0.22276268988E+02  0.22276268988E+02  0.00000000000E+00 0.  1.
         21   -1    0    0  502  503 -0.00000000000E+00 -0.00000000000E+00 -0.32643699013E+02  0.32643699013E+02  0.00000000000E+00 0.  1.
          2    1    1    2  501    0 -0.43862668827E+01 -0.21962910751E+02  0.10110283234E+02  0.24572883691E+02  0.00000000000E+00 0.  1.
         -2    1    1    2    0  503  0.43862668827E+01  0.21962910751E+02 -0.20477713259E+02  0.30347084310E+02  0.00000000000E+00 0. -1.
<mgrwt>
<rscale>  2 0.22396624E+02</rscale>
<asrwt>0</asrwt>
<pdfrwt beam="1">  1       21 0.34271183E-02 0.22396624E+02</pdfrwt>
<pdfrwt beam="2">  1       21 0.50221075E-02 0.22396624E+02</pdfrwt>
<totfact> 0.91756531E+07</totfact>
</mgrwt>
</event>
<event>
 4    1  0.7424968E+004  0.2179827E+02  0.7546771E-02  0.1711764E+00
         21   -1    0    0  501  502  0.00000000000E+00  0.00000000000E+00  0.46203546236E+02  0.46203546236E+02  0.00000000000E+00 0.  1.
         21   -1    0    0  502  503 -0.00000000000E+00 -0.00000000000E+00 -0.12102273693E+02  0.12102273693E+02  0.00000000000E+00 0.  1.
          2    1    1    2  501    0 -0.20715430509E+02 -0.67849486904E+01  0.57511387415E+01  0.22544182991E+02  0.00000000000E+00 0.  1.
         -2    1    1    2    0  503  0.20715430509E+02  0.67849486904E+01  0.28350133801E+02  0.35761636938E+02  0.00000000000E+00 0. -1.
<mgrwt>
<rscale>  2 0.21798270E+02</rscale>
<asrwt>0</asrwt>
<pdfrwt beam="1">  1       21 0.71082378E-02 0.21798270E+02</pdfrwt>
<pdfrwt beam="2">  1       21 0.18618883E-02 0.21798270E+02</pdfrwt>
<totfact> 0.13385983E+08</totfact>
</mgrwt>
</event>
<event>
 4    1  0.7424968E+004  0.2068552E+02  0.7546771E-02  0.1732029E+00
         21   -1    0    0  503  502  0.00000000000E+00  0.00000000000E+00  0.10065908343E+03  0.10065908343E+03  0.00000000000E+00 0. -1.
         21   -1    0    0  501  503 -0.00000000000E+00 -0.00000000000E+00 -0.47448726669E+01  0.47448726669E+01  0.00000000000E+00 0. -1.
          3    1    1    2  501    0 -0.80929933019E+01  0.19036658112E+02  0.30952380497E+02  0.37228225194E+02  0.00000000000E+00 0.  1.
         -3    1    1    2    0  502  0.80929933019E+01 -0.19036658112E+02  0.64961830268E+02  0.68175730905E+02  0.00000000000E+00 0. -1.
<mgrwt>
<rscale>  2 0.20685524E+02</rscale>
<asrwt>0</asrwt>
<pdfrwt beam="1">  1       21 0.15486011E-01 0.20685524E+02</pdfrwt>
<pdfrwt beam="2">  1       21 0.72998048E-03 0.20685524E+02</pdfrwt>
<totfact> 0.14855238E+08</totfact>
</mgrwt>
</event>
<event>
 4    1  0.7424968E+004  0.2317697E+02  0.7546771E-02  0.1688657E+00
         21   -1    0    0  503  502  0.00000000000E+00  0.00000000000E+00  0.32887377242E+02  0.32887377242E+02  0.00000000000E+00 0. -1.
         21   -1    0    0  501  503 -0.00000000000E+00 -0.00000000000E+00 -0.21126473428E+02  0.21126473428E+02  0.00000000000E+00 0. -1.
          3    1    1    2  501    0  0.20686672899E+02  0.10451478447E+02  0.18743860834E+02  0.29807786841E+02  0.00000000000E+00 0.  1.
         -3    1    1    2    0  502 -0.20686672899E+02 -0.10451478447E+02 -0.69829570197E+01  0.24206063829E+02  0.00000000000E+00 0. -1.
<mgrwt>
<rscale>  2 0.23176968E+02</rscale>
<asrwt>0</asrwt>
<pdfrwt beam="1">  1       21 0.50595965E-02 0.23176968E+02</pdfrwt>
<pdfrwt beam="2">  1       21 0.32502267E-02 0.23176968E+02</pdfrwt>
<totfact> 0.99483596E+07</totfact>
</mgrwt>
</event>
<event>
 4    1  0.7424968E+004  0.2645772E+02  0.7546771E-02  0.1640906E+00
         21   -1    0    0  501  502  0.00000000000E+00  0.00000000000E+00  0.37047087411E+02  0.37047087411E+02  0.00000000000E+00 0. -1.
         21   -1    0    0  502  503 -0.00000000000E+00 -0.00000000000E+00 -0.18971259755E+02  0.18971259755E+02  0.00000000000E+00 0. -1.
          3    1    1    2  501    0  0.26413532838E+02  0.15285066844E+01  0.10811746307E+02  0.28581548382E+02  0.00000000000E+00 0.  1.
         -3    1    1    2    0  503 -0.26413532838E+02 -0.15285066844E+01  0.72640813490E+01  0.27436798784E+02  0.00000000000E+00 0. -1.
<mgrwt>
<rscale>  2 0.26457722E+02</rscale>
<asrwt>0</asrwt>
<pdfrwt beam="1">  1       21 0.56995519E-02 0.26457722E+02</pdfrwt>
<pdfrwt beam="2">  1       21 0.29186554E-02 0.26457722E+02</pdfrwt>
<totfact> 0.10085092E+08</totfact>
</mgrwt>
</event>
<event>
 4    1  0.7424968E+004  0.2194673E+02  0.7546771E-02  0.1709175E+00
         21   -1    0    0  501  502  0.00000000000E+00  0.00000000000E+00  0.26719208887E+03  0.26719208887E+03  0.00000000000E+00 0. -1.
         21   -1    0    0  502  503 -0.00000000000E+00 -0.00000000000E+00 -0.18222150583E+01  0.18222150583E+01  0.00000000000E+00 0. -1.
          5    1    1    2  501    0  0.13837264085E+02 -0.17034931531E+02  0.14661587608E+03  0.14824936387E+03  0.00000000000E+00 0.  1.
         -5    1    1    2    0  503 -0.13837264085E+02  0.17034931531E+02  0.11875399773E+03  0.12076494006E+03  0.00000000000E+00 0. -1.
<mgrwt>
<rscale>  2 0.21946726E+02</rscale>
<asrwt>0</asrwt>
<pdfrwt beam="1">  1       21 0.41106444E-01 0.21946726E+02</pdfrwt>
<pdfrwt beam="2">  1       21 0.28034099E-03 0.21946726E+02</pdfrwt>
<totfact> 0.10791251E+08</totfact>
</mgrwt>
</event>
<event>
 4    1  0.7424968E+004  0.2184154E+02  0.7546771E-02  0.1711007E+00
         21   -1    0    0  501  502  0.00000000000E+00  0.00000000000E+00  0.22825568090E+01  0.22825568090E+01  0.00000000000E+00 0.  1.
         21   -1    0    0  502  503 -0.00000000000E+00 -0.00000000000E+00 -0.20992879553E+03  0.20992879553E+03  0.00000000000E+00 0.  1.
          2    1    1    2  501    0 -0.97090451948E+01  0.19564947061E+02 -0.96762663671E+02  0.99197105769E+02  0.00000000000E+00 0.  1.
         -2    1    1    2    0  503  0.97090451948E+01 -0.19564947061E+02 -0.11088357505E+03  0.11301424657E+03  0.00000000000E+00 0. -1.
<mgrwt>
<rscale>  2 0.21841536E+02</rscale>
<asrwt>0</asrwt>
<pdfrwt beam="1">  1       21 0.35116255E-03 0.21841536E+02</pdfrwt>
<pdfrwt beam="2">  1       21 0.32296741E-01 0.21841536E+02</pdfrwt>
<totfact> 0.12152466E+08</totfact>
</mgrwt>
</event>
<event>
 4    1  0.7424968E+004  0.2060063E+02  0.7546771E-02  0.1733641E+00
         21   -1    0    0  501  502  0.00000000000E+00  0.00000000000E+00  0.30407621469E+01  0.30407621469E+01  0.00000000000E+00 0. -1.
         21   -1    0    0  502  503 -0.00000000000E+00 -0.00000000000E+00 -0.16461049839E+03  0.16461049839E+03  0.00000000000E+00 0. -1.
          2    1    1    2  501    0 -0.62641579750E+01  0.19625140811E+02 -0.11348184530E+03  0.11533652951E+03  0.00000000000E+00 0. -1.
         -2    1    1    2    0  503  0.62641579750E+01 -0.19625140811E+02 -0.48087890950E+02  0.52314731033E+02  0.00000000000E+00 0.  1.
<mgrwt>
<rscale>  2 0.20600627E+02</rscale>
<asrwt>0</asrwt>
<pdfrwt beam="1">  1       21 0.46780951E-03 0.20600627E+02</pdfrwt>
<pdfrwt beam="2">  1       21 0.25324695E-01 0.20600627E+02</pdfrwt>
<totfact> 0.12178773E+08</totfact>
</mgrwt>
</event>
<event>
 4    1  0.7424968E+004  0.2621176E+02  0.7546771E-02  0.1644183E+00
         21   -1    0    0  501  502  0.00000000000E+00  0.00000000000E+00  0.21882855499E+01  0.21882855499E+01  0.00000000000E+00 0.  1.
         21   -1    0    0  502  503 -0.00000000000E+00 -0.00000000000E+00 -0.31899222859E+03  0.31899222859E+03  0.00000000000E+00 0.  1.
          5    1    1    2  501    0 -0.28696475913E+01 -0.26054203304E+02 -0.13825220539E+03  0.14071506203E+03  0.00000000000E+00 0. -1.
         -5    1    1    2    0  503  0.28696475913E+01  0.26054203304E+02 -0.17855173765E+03  0.18046545211E+03  0.00000000000E+00 0.  1.
<mgrwt>
<rscale>  2 0.26211760E+02</rscale>
<asrwt>0</asrwt>
<pdfrwt beam="1">  1       21 0.33665926E-03 0.26211760E+02</pdfrwt>
<pdfrwt beam="2">  1       21 0.49075735E-01 0.26211760E+02</pdfrwt>
<totfact> 0.61444267E+07</totfact>
</mgrwt>
</event>
<event>
 4    1  0.7424968E+004  0.3047940E+02  0.7546771E-02  0.1592849E+00
         21   -1    0    0  501  502  0.00000000000E+00  0.00000000000E+00  0.39854933847E+01  0.39854933847E+01  0.00000000000E+00 0. -1.
         21   -1    0    0  502  503 -0.00000000000E+00 -0.00000000000E+00 -0.25319044048E+03  0.25319044048E+03  0.00000000000E+00 0. -1.
          3    1    1    2  501    0 -0.14481957526E+02  0.26819147735E+02 -0.88374965587E+02  0.93483305041E+02  0.00000000000E+00 0.  1.
         -3    1    1    2    0  503  0.14481957526E+02 -0.26819147735E+02 -0.16082998151E+03  0.16369262882E+03  0.00000000000E+00 0. -1.
<mgrwt>
<rscale>  2 0.30479399E+02</rscale>
<asrwt>0</asrwt>
<pdfrwt beam="1">  1       21 0.61315299E-03 0.30479399E+02</pdfrwt>
<pdfrwt beam="2">  1       21 0.38952365E-01 0.30479399E+02</pdfrwt>
<totfact> 0.40704393E+07</totfact>
</mgrwt>
</event>
<event>
 4    1  0.7424968E+004  0.2243160E+02  0.7546771E-02  0.1700893E+00
         21   -1    0    0  503  502  0.00000000000E+00  0.00000000000E+00  0.24722179786E+03  0.24722179786E+03  0.00000000000E+00 0.  1.
         21   -1    0    0  501  503 -0.00000000000E+00 -0.00000000000E+00 -0.22110605482E+01  0.22110605482E+01  0.00000000000E+00 0.  1.
          2    1    1    2  501    0 -0.19226321663E+02  0.11555304628E+02  0.87344941702E+02  0.90179351021E+02  0.00000000000E+00 0.  1.
         -2    1    1    2    0  502  0.19226321663E+02 -0.11555304628E+02  0.15766579561E+03  0.15925350739E+03  0.00000000000E+00 0. -1.
<mgrwt>
<rscale>  2 0.22431596E+02</rscale>
<asrwt>0</asrwt>
<pdfrwt beam="1">  1       21 0.38034101E-01 0.22431596E+02</pdfrwt>
<pdfrwt beam="2">  1       21 0.34016336E-03 0.22431596E+02</pdfrwt>
<totfact> 0.94765397E+07</totfact>
</mgrwt>
</event>
<event>
 4    1  0.7424968E+004  0.2007429E+02  0.7546771E-02  0.1743855E+00
         21   -1    0    0  501  502  0.00000000000E+00  0.00000000000E+00  0.51931532781E+03  0.51931532781E+03  0.00000000000E+00 0. -1.
         21   -1    0    0  502  503 -0.00000000000E+00 -0.00000000000E+00 -0.88732017596E+00  0.88732017596E+00  0.00000000000E+00 0. -1.
          1    1    1    2  501    0  0.20068819993E+02  0.46849396235E+00  0.35135081220E+03  0.35192381314E+03  0.00000000000E+00 0.  1.
         -1    1    1    2    0  503 -0.20068819993E+02 -0.46849396235E+00  0.16707719544E+03  0.16827883485E+03  0.00000000000E+00 0. -1.
<mgrwt>
<rscale>  2 0.20074288E+02</rscale>
<asrwt>0</asrwt>
<pdfrwt beam="1">  1       21 0.79894423E-01 0.20074288E+02</pdfrwt>
<pdfrwt beam="2">  1       21 0.13651121E-03 0.20074288E+02</pdfrwt>
<totfact> 0.79647934E+07</totfact>
</mgrwt>
</event>
<event>
 4    1  0.7424968E+004  0.2213629E+02  0.7546771E-02  0.1705906E+00
         21   -1    0    0  503  502  0.00000000000E+00  0.00000000000E+00  0.18690227144E+01  0.18690227144E+01  0.00000000000E+00 0.  1.
         21   -1    0    0  501  503 -0.00000000000E+00 -0.00000000000E+00 -0.26252710923E+03  0.26252710923E+03  0.00000000000E+00 0.  1.
          1    1    1    2  501    0  0.17734244690E+02  0.13248092140E+02 -0.13515448033E+03  0.13695528078E+03  0.00000000000E+00 0.  1.
         -1    1    1    2    0  502 -0.17734244690E+02 -0.13248092140E+02 -0.12550360618E+03  0.12744085116E+03  0.00000000000E+00 0. -1.
<mgrwt>
<rscale>  2 0.22136291E+02</rscale>
<asrwt>0</asrwt>
<pdfrwt beam="1">  1       21 0.28754216E-03 0.22136291E+02</pdfrwt>
<pdfrwt beam="2">  1       21 0.40388757E-01 0.22136291E+02</pdfrwt>
<totfact> 0.10776977E+08</totfact>
</mgrwt>
</event>
<event>
 4    1  0.7424968E+004  0.2168179E+02  0.7546771E-02  0.1713814E+00
         21   -1    0    0  501  502  0.00000000000E+00  0.00000000000E+00  0.70421779249E+01  0.70421779249E+01  0.00000000000E+00 0. -1.
         21   -1    0    0  502  503 -0.00000000000E+00 -0.00000000000E+00 -0.73692694355E+02  0.73692694355E+02  0.00000000000E+00 0. -1.
          1    1    1    2  501    0 -0.19841085165E+01 -0.21590816823E+02 -0.45711195733E+02  0.50592622713E+02  0.00000000000E+00 0. -1.
         -1    1    1    2    0  503  0.19841085165E+01  0.21590816823E+02 -0.20939320697E+02  0.30142249567E+02  0.00000000000E+00 0.  1.
<mgrwt>
<rscale>  2 0.21681791E+02</rscale>
<asrwt>0</asrwt>
<pdfrwt beam="1">  1       21 0.10834120E-02 0.21681791E+02</pdfrwt>
<pdfrwt beam="2">  1       21 0.11337337E-01 0.21681791E+02</pdfrwt>
<totfact> 0.14115174E+08</totfact>
</mgrwt>
</event>
<event>
 4    1  0.7424968E+004  0.3049521E+02  0.7546771E-02  0.1592678E+00
         21   -1    0    0  501  502  0.00000000000E+00  0.00000000000E+00  0.49091433782E+01  0.49091433782E+01  0.00000000000E+00 0.  1.
         21   -1    0    0  502  503 -0.00000000000E+00 -0.00000000000E+00 -0.19923392859E+03  0.19923392859E+03  0.00000000000E+00 0.  1.
          3    1    1    2  501    0 -0.13459513590E+02 -0.27364197673E+02 -0.11980040412E+03  0.12362076949E+03  0.00000000000E+00 0.  1.
         -3    1    1    2    0  503  0.13459513590E+02  0.27364197673E+02 -0.74524381089E+02  0.80522302482E+02  0.00000000000E+00 0. -1.
<mgrwt>
<rscale>  2 0.30495210E+02</rscale>
<asrwt>0</asrwt>
<pdfrwt beam="1">  1       21 0.75525307E-03 0.30495210E+02</pdfrwt>
<pdfrwt beam="2">  1       21 0.30651364E-01 0.30495210E+02</pdfrwt>
<totfact> 0.46629178E+07</totfact>
</mgrwt>
</event>
<event>
 4    1  0.7424968E+004  0.2682470E+02  0.7546771E-02  0.1636097E+00
         21   -1    0    0  503  502  0.00000000000E+00  0.00000000000E+00  0.20260475891E+03  0.20260475891E+03  0.00000000000E+00 0.  1.
         21   -1    0    0  501  503 -0.00000000000E+00 -0.00000000000E+00 -0.36196134429E+01  0.36196134429E+01  0.00000000000E+00 0.  1.
          2    1    1    2  501    0  0.77409648110E+00 -0.26813525638E+02  0.11363036211E+03  0.11675368763E+03  0.00000000000E+00 0. -1.
         -2    1    1    2    0  502 -0.77409648110E+00  0.26813525638E+02  0.85354783362E+02  0.89470684725E+02  0.00000000000E+00 0.  1.
<mgrwt>
<rscale>  2 0.26824697E+02</rscale>
<asrwt>0</asrwt>
<pdfrwt beam="1">  1       21 0.31169954E-01 0.26824697E+02</pdfrwt>
<pdfrwt beam="2">  1       21 0.55686376E-03 0.26824697E+02</pdfrwt>
<totfact> 0.69322459E+07</totfact>
</mgrwt>
</event>
<event>
 4    1  0.7424968E+004  0.2001465E+02  0.7546771E-02  0.1745037E+00
         21   -1    0    0  501  502  0.00000000000E+00  0.00000000000E+00  0.31456158454E+02  0.31456158454E+02  0.00000000000E+00 0.  1.
         21   -1    0    0  502  503 -0.00000000000E+00 -0.00000000000E+00 -0.51144245291E+02  0.51144245291E+02  0.00000000000E+00 0.  1.
          4    1    1    2  501    0 -0.16932596085E+02  0.10671149449E+02 -0.45634983088E+02  0.49831093929E+02  0.00000000000E+00 0. -1.
         -4    1    1    2    0  503  0.16932596085E+02 -0.10671149449E+02  0.25946896251E+02  0.32769309816E+02  0.00000000000E+00 0.  1.
<mgrwt>
<rscale>  2 0.20014651E+02</rscale>
<asrwt>0</asrwt>
<pdfrwt beam="1">  1       21 0.48394090E-02 0.20014651E+02</pdfrwt>
<pdfrwt beam="2">  1       21 0.78683454E-02 0.20014651E+02</pdfrwt>
<totfact> 0.25184228E+07</totfact>
</mgrwt>
</event>
<event>
 4    1  0.7424968E+004  0.3339527E+02  0.7546771E-02  0.1563331E+00
         21   -1    0    0  503  502  0.00000000000E+00  0.00000000000E+00  0.18675724631E+02  0.18675724631E+02  0.00000000000E+00 0.  1.
         21   -1    0    0  501  503 -0.00000000000E+00 -0.00000000000E+00 -0.59940297660E+02  0.59940297660E+02  0.00000000000E+00 0.  1.
          2    1    1    2  501    0 -0.21441835740E+02 -0.25602571516E+02 -0.18229003319E+02  0.38046557665E+02  0.00000000000E+00 0. -1.
         -2    1    1    2    0  502  0.21441835740E+02  0.25602571516E+02 -0.23035569711E+02  0.40569464626E+02  0.00000000000E+00 0.  1.
<mgrwt>
<rscale>  2 0.33395269E+02</rscale>
<asrwt>0</asrwt>
<pdfrwt beam="1">  1       21 0.28731884E-02 0.33395269E+02</pdfrwt>
<pdfrwt beam="2">  1       21 0.92215843E-02 0.33395269E+02</pdfrwt>
<totfact> 0.49628093E+07</totfact>
</mgrwt>
</event>
<event>
 4    1  0.7424968E+004  0.2660641E+02  0.7546771E-02  0.1638946E+00
         21   -1    0    0  503  502  0.00000000000E+00  0.00000000000E+00  0.21246647801E+01  0.21246647801E+01  0.00000000000E+00 0. -1.
         21   -1    0    0  501  503 -0.00000000000E+00 -0.00000000000E+00 -0.36206105606E+03  0.36206105606E+03  0.00000000000E+00 0. -1.
          5    1    1    2  501    0  0.16355023855E+02  0.20986043511E+02 -0.23139514874E+03  0.23291976234E+03  0.00000000000E+00 0. -1.
         -5    1    1    2    0  502 -0.16355023855E+02 -0.20986043511E+02 -0.12854124254E+03  0.13126595850E+03  0.00000000000E+00 0.  1.
<mgrwt>
<rscale>  2 0.26606406E+02</rscale>
<asrwt>0</asrwt>
<pdfrwt beam="1">  1       21 0.32687168E-03 0.26606406E+02</pdfrwt>
<pdfrwt beam="2">  1       21 0.55701671E-01 0.26606406E+02</pdfrwt>
<totfact> 0.50170451E+07</totfact>
</mgrwt>
</event>
<event>
 4    1  0.7424968E+004  0.2322132E+02  0.7546771E-02  0.1687947E+00
         21   -1    0    0  503  502  0.00000000000E+00  0.00000000000E+00  0.62906779167E+02  0.62906779167E+02  0.00000000000E+00 0.  1.
         21   -1    0    0  501  503 -0.00000000000E+00 -0.00000000000E+00 -0.15663021192E+02  0.15663021192E+02  0.00000000000E+00 0.  1.
          4    1    1    2  501    0  0.90471709584E+00 -0.23203693785E+02  0.50054831874E+02  0.55178946277E+02  0.00000000000E+00 0. -1.
         -4    1    1    2    0  502 -0.90471709584E+00  0.23203693785E+02 -0.28110738987E+01  0.23390854083E+02  0.00000000000E+00 0.  1.
<mgrwt>
<rscale>  2 0.23221325E+02</rscale>
<asrwt>0</asrwt>
<pdfrwt beam="1">  1       21 0.96779659E-02 0.23221325E+02</pdfrwt>
<pdfrwt beam="2">  1       21 0.24096956E-02 0.23221325E+02</pdfrwt>
<totfact> 0.55380786E+07</totfact>
</mgrwt>
</event>
<event>
 4    1  0.7424968E+004  0.2323582E+02  0.7546771E-02  0.1687716E+00
         21   -1    0    0  503  502  0.00000000000E+00  0.00000000000E+00  0.54820520574E+01  0.54820520574E+01  0.00000000000E+00 0.  1.
         21   -1    0    0  501  503 -0.00000000000E+00 -0.00000000000E+00 -0.14032231011E+03  0.14032231011E+03  0.00000000000E+00 0.  1.
          4    1    1    2  501    0 -0.72847924285E+01  0.22064337969E+02 -0.10722680360E+03  0.10971549854E+03  0.00000000000E+00 0.  1.
         -4    1    1    2    0  502  0.72847924285E+01 -0.22064337969E+02 -0.27613454453E+02  0.36088863622E+02  0.00000000000E+00 0. -1.
<mgrwt>
<rscale>  2 0.23235817E+02</rscale>
<asrwt>0</asrwt>
<pdfrwt beam="1">  1       21 0.84339263E-03 0.23235817E+02</pdfrwt>
<pdfrwt beam="2">  1       21 0.21588048E-01 0.23235817E+02</pdfrwt>
<totfact> 0.69732967E+07</totfact>
</mgrwt>
</event>
<event>
 4    1  0.7424968E+004  0.2212300E+02  0.7546771E-02  0.1706133E+00
         21   -1    0    0  501  502  0.00000000000E+00  0.00000000000E+00  0.80018467036E+02  0.80018467036E+02  0.00000000000E+00 0. -1.
         21   -1    0    0  502  503 -0.00000000000E+00 -0.00000000000E+00 -0.11634133944E+02  0.11634133944E+02  0.00000000000E+00 0. -1.
          1    1    1    2  501    0  0.22041021692E+02 -0.19027602058E+01  0.65751445599E+02  0.69373480033E+02  0.00000000000E+00 0. -1.
         -1    1    1    2    0  503 -0.22041021692E+02  0.19027602058E+01  0.26328874937E+01  0.22279120947E+02  0.00000000000E+00 0.  1.
<mgrwt>
<rscale>  2 0.22123000E+02</rscale>
<asrwt>0</asrwt>
<pdfrwt beam="1">  1       21 0.12310533E-01 0.22123000E+02</pdfrwt>
<pdfrwt beam="2">  1       21 0.17898668E-02 0.22123000E+02</pdfrwt>
<totfact> 0.57858647E+07</totfact>
</mgrwt>
</event>
<event>
 4    1  0.7424968E+004  0.2481126E+02  0.7546771E-02  0.1663728E+00
         21   -1    0    0  501  502  0.00000000000E+00  0.00000000000E+00  0.36975845438E+02  0.36975845438E+02  0.00000000000E+00 0.  1.
         21   -1    0    0  502  503 -0.00000000000E+00 -0.00000000000E+00 -0.20082494858E+02  0.20082494858E+02  0.00000000000E+00 0.  1.
          1    1    1    2  501    0 -0.23463270955E+02 -0.80668263636E+01 -0.33502591792E+01  0.25036433613E+02  0.00000000000E+00 0.  1.
         -1    1    1    2    0  503  0.23463270955E+02  0.80668263636E+01  0.20243609760E+02  0.32021906683E+02  0.00000000000E+00 0. -1.
<mgrwt>
<rscale>  2 0.24811263E+02</rscale>
<asrwt>0</asrwt>
<pdfrwt beam="1">  1       21 0.56885916E-02 0.24811263E+02</pdfrwt>
<pdfrwt beam="2">  1       21 0.30896146E-02 0.24811263E+02</pdfrwt>
<totfact> 0.90996939E+07</totfact>
</mgrwt>
</event>
<event>
 4    1  0.7424968E+004  0.3257709E+02  0.7546771E-02  0.1571233E+00
         21   -1    0    0  503  502  0.00000000000E+00  0.00000000000E+00  0.86961587060E+02  0.86961587060E+02  0.00000000000E+00 0. -1.
         21   -1    0    0  501  503 -0.00000000000E+00 -0.00000000000E+00 -0.12390207181E+02  0.12390207181E+02  0.00000000000E+00 0. -1.
          4    1    1    2  501    0  0.29545949343E+02 -0.13722386161E+02  0.31193572852E+02  0.45103281386E+02  0.00000000000E+00 0.  1.
         -4    1    1    2    0  502 -0.29545949343E+02  0.13722386161E+02  0.43377807027E+02  0.54248512855E+02  0.00000000000E+00 0. -1.
<mgrwt>
<rscale>  2 0.32577093E+02</rscale>
<asrwt>0</asrwt>
<pdfrwt beam="1">  1       21 0.13378705E-01 0.32577093E+02</pdfrwt>
<pdfrwt beam="2">  1       21 0.19061858E-02 0.32577093E+02</pdfrwt>
<totfact> 0.49987724E+07</totfact>
</mgrwt>
</event>
<event>
 4    1  0.7424968E+004  0.2747792E+02  0.7546771E-02  0.1627766E+00
         21   -1    0    0  501  502  0.00000000000E+00  0.00000000000E+00  0.67893250217E+01  0.67893250217E+01  0.00000000000E+00 0.  1.
         21   -1    0    0  502  503 -0.00000000000E+00 -0.00000000000E+00 -0.14256800396E+03  0.14256800396E+03  0.00000000000E+00 0.  1.
          1    1    1    2  501    0  0.25862667781E+02 -0.92821742879E+01 -0.10291322254E+03  0.10651839146E+03  0.00000000000E+00 0. -1.
         -1    1    1    2    0  503 -0.25862667781E+02  0.92821742879E+01 -0.32865456395E+02  0.42838937525E+02  0.00000000000E+00 0.  1.
<mgrwt>
<rscale>  2 0.27477925E+02</rscale>
<asrwt>0</asrwt>
<pdfrwt beam="1">  1       21 0.10445116E-02 0.27477925E+02</pdfrwt>
<pdfrwt beam="2">  1       21 0.21933537E-01 0.27477925E+02</pdfrwt>
<totfact> 0.51184181E+07</totfact>
</mgrwt>
</event>
<event>
 4    1  0.7424968E+004  0.3420710E+02  0.7546771E-02  0.1555757E+00
         21   -1    0    0  503  502  0.00000000000E+00  0.00000000000E+00  0.78875883183E+02  0.78875883183E+02  0.00000000000E+00 0. -1.
         21   -1    0    0  501  503 -0.00000000000E+00 -0.00000000000E+00 -0.18221069492E+02  0.18221069492E+02  0.00000000000E+00 0. -1.
          5    1    1    2  501    0  0.16089721451E+02 -0.30186858564E+02  0.93990510433E+01  0.35474888680E+02  0.00000000000E+00 0.  1.
         -5    1    1    2    0  502 -0.16089721451E+02  0.30186858564E+02  0.51255762648E+02  0.61622063994E+02  0.00000000000E+00 0. -1.
<mgrwt>
<rscale>  2 0.34207098E+02</rscale>
<asrwt>0</asrwt>
<pdfrwt beam="1">  1       21 0.12134751E-01 0.34207098E+02</pdfrwt>
<pdfrwt beam="2">  1       21 0.28032415E-02 0.34207098E+02</pdfrwt>
<totfact> 0.32639105E+07</totfact>
</mgrwt>
</event>
<event>
 4    1  0.7424968E+004  0.2352593E+02  0.7546771E-02  0.1683124E+00
         21   -1    0    0  501  502  0.00000000000E+00  0.00000000000E+00  0.13957227856E+03  0.13957227856E+03  0.00000000000E+00 0. -1.
         21   -1    0    0  502  503 -0.00000000000E+00 -0.00000000000E+00 -0.56530492273E+01  0.56530492273E+01  0.00000000000E+00 0. -1.
          3    1    1    2  501    0 -0.19335589178E+02 -0.13401658744E+02  0.27285862864E+02  0.36027597452E+02  0.00000000000E+00 0.  1.
         -3    1    1    2    0  503  0.19335589178E+02  0.13401658744E+02  0.10663336647E+03  0.10919773033E+03  0.00000000000E+00 0. -1.
<mgrwt>
<rscale>  2 0.23525932E+02</rscale>
<asrwt>0</asrwt>
<pdfrwt beam="1">  1       21 0.21472656E-01 0.23525932E+02</pdfrwt>
<pdfrwt beam="2">  1       21 0.86969999E-03 0.23525932E+02</pdfrwt>
<totfact> 0.67449256E+07</totfact>
</mgrwt>
</event>
<event>
 4    1  0.7424968E+004  0.3893531E+02  0.7546771E-02  0.1516196E+00
         21   -1    0    0  501  502  0.00000000000E+00  0.00000000000E+00  0.17507117663E+02  0.17507117663E+02  0.00000000000E+00 0.  1.
         21   -1    0    0  502  503 -0.00000000000E+00 -0.00000000000E+00 -0.99401410318E+02  0.99401410318E+02  0.00000000000E+00 0.  1.
          1    1    1    2  501    0  0.10070195683E+02 -0.37610500548E+02 -0.61931793388E+02  0.73153985707E+02  0.00000000000E+00 0. -1.
         -1    1    1    2    0  503 -0.10070195683E+02  0.37610500548E+02 -0.19962499267E+02  0.43754542274E+02  0.00000000000E+00 0.  1.
<mgrwt>
<rscale>  2 0.38935313E+02</rscale>
<asrwt>0</asrwt>
<pdfrwt beam="1">  1       21 0.26934027E-02 0.38935313E+02</pdfrwt>
<pdfrwt beam="2">  1       21 0.15292525E-01 0.38935313E+02</pdfrwt>
<totfact> 0.23890914E+07</totfact>
</mgrwt>
</event>
<event>
 4    1  0.7424968E+004  0.3598927E+02  0.7546771E-02  0.1539987E+00
         21   -1    0    0  503  502  0.00000000000E+00  0.00000000000E+00  0.11051946975E+03  0.11051946975E+03  0.00000000000E+00 0. -1.
         21   -1    0    0  501  503 -0.00000000000E+00 -0.00000000000E+00 -0.13895625869E+02  0.13895625869E+02  0.00000000000E+00 0. -1.
          4    1    1    2  501    0 -0.30233600272E+02 -0.19523250717E+02  0.23694046747E+02  0.43088696374E+02  0.00000000000E+00 0.  1.
         -4    1    1    2    0  502  0.30233600272E+02  0.19523250717E+02  0.72929797133E+02  0.81326399243E+02  0.00000000000E+00 0. -1.
<mgrwt>
<rscale>  2 0.35989275E+02</rscale>
<asrwt>0</asrwt>
<pdfrwt beam="1">  1       21 0.17002995E-01 0.35989275E+02</pdfrwt>
<pdfrwt beam="2">  1       21 0.21377887E-02 0.35989275E+02</pdfrwt>
<totfact> 0.28162010E+07</totfact>
</mgrwt>
</event>
<event>
 4    1  0.7424968E+004  0.2427560E+02  0.7546771E-02  0.1671630E+00
         21   -1    0    0  501  502  0.00000000000E+00  0.00000000000E+00  0.54976250439E+01  0.54976250439E+01  0.00000000000E+00 0.  1.
         21   -1    0    0  502  503 -0.00000000000E+00 -0.00000000000E+00 -0.11042272765E+03  0.11042272765E+03  0.00000000000E+00 0.  1.
          4    1    1    2  501    0 -0.21335667691E+02 -0.11579908166E+02 -0.42549507059E+02  0.48987401849E+02  0.00000000000E+00 0.  1.
         -4    1    1    2    0  503  0.21335667691E+02  0.11579908166E+02 -0.62375595542E+02  0.66932950840E+02  0.00000000000E+00 0. -1.
<mgrwt>
<rscale>  2 0.24275605E+02</rscale>
<asrwt>0</asrwt>
<pdfrwt beam="1">  1       21 0.84578845E-03 0.24275605E+02</pdfrwt>
<pdfrwt beam="2">  1       21 0.16988112E-01 0.24275605E+02</pdfrwt>
<totfact> 0.10662502E+08</totfact>
</mgrwt>
</event>
<event>
 4    1  0.7424968E+004  0.2258582E+02  0.7546771E-02  0.1698313E+00
         21   -1    0    0  503  502  0.00000000000E+00  0.00000000000E+00  0.10329378457E+03  0.10329378457E+03  0.00000000000E+00 0.  1.
         21   -1    0    0  501  503 -0.00000000000E+00 -0.00000000000E+00 -0.49477108863E+01  0.49477108863E+01  0.00000000000E+00 0.  1.
          5    1    1    2  501    0 -0.22483877104E+02 -0.21434459020E+01  0.51504815178E+02  0.56239355228E+02  0.00000000000E+00 0.  1.
         -5    1    1    2    0  502  0.22483877104E+02  0.21434459020E+01  0.46841258507E+02  0.52002140230E+02  0.00000000000E+00 0. -1.
<mgrwt>
<rscale>  2 0.22585816E+02</rscale>
<asrwt>0</asrwt>
<pdfrwt beam="1">  1       21 0.15891350E-01 0.22585816E+02</pdfrwt>
<pdfrwt beam="2">  1       21 0.76118637E-03 0.22585816E+02</pdfrwt>
<totfact> 0.13710626E+08</totfact>
</mgrwt>
</event>
<event>
 4    1  0.7424968E+004  0.2660754E+02  0.7546771E-02  0.1638931E+00
         21   -1    0    0  503  502  0.00000000000E+00  0.00000000000E+00  0.41631160187E+02  0.41631160187E+02  0.00000000000E+00 0. -1.
         21   -1    0    0  501  503 -0.00000000000E+00 -0.00000000000E+00 -0.19736707214E+02  0.19736707214E+02  0.00000000000E+00 0. -1.
          1    1    1    2  501    0  0.14794551000E+02  0.22115206942E+02 -0.46699734484E+00  0.26611636626E+02  0.00000000000E+00 0. -1.
         -1    1    1    2    0  502 -0.14794551000E+02 -0.22115206942E+02  0.22361450317E+02  0.34756230775E+02  0.00000000000E+00 0.  1.
<mgrwt>
<rscale>  2 0.26607539E+02</rscale>
<asrwt>0</asrwt>
<pdfrwt beam="1">  1       21 0.64047938E-02 0.26607539E+02</pdfrwt>
<pdfrwt beam="2">  1       21 0.30364165E-02 0.26607539E+02</pdfrwt>
<totfact> 0.78623870E+07</totfact>
</mgrwt>
</event>
<event>
 4    1  0.7424968E+004  0.2146888E+02  0.7546771E-02  0.1717603E+00
         21   -1    0    0  501  502  0.00000000000E+00  0.00000000000E+00  0.23490018009E+01  0.23490018009E+01  0.00000000000E+00 0. -1.
         21   -1    0    0  502  503 -0.00000000000E+00 -0.00000000000E+00 -0.19717106066E+03  0.19717106066E+03  0.00000000000E+00 0. -1.
          2    1    1    2  501    0 -0.21086399281E+02 -0.40344034005E+01 -0.10435267693E+03  0.10653822707E+03  0.00000000000E+00 0.  1.
         -2    1    1    2    0  503  0.21086399281E+02  0.40344034005E+01 -0.90469381932E+02  0.92981835390E+02  0.00000000000E+00 0. -1.
<mgrwt>
<rscale>  2 0.21468876E+02</rscale>
<asrwt>0</asrwt>
<pdfrwt beam="1">  1       21 0.36138488E-03 0.21468876E+02</pdfrwt>
<pdfrwt beam="2">  1       21 0.30334010E-01 0.21468876E+02</pdfrwt>
<totfact> 0.13001852E+08</totfact>
</mgrwt>
</event>
<event>
 4    1  0.7424968E+004  0.2372333E+02  0.7546771E-02  0.1680047E+00
         21   -1    0    0  501  502  0.00000000000E+00  0.00000000000E+00  0.49228825229E+02  0.49228825229E+02  0.00000000000E+00 0. -1.
         21   -1    0    0  502  503 -0.00000000000E+00 -0.00000000000E+00 -0.12808334313E+02  0.12808334313E+02  0.00000000000E+00 0. -1.
          2    1    1    2  501    0  0.38042634374E+01 -0.23416316280E+02  0.28377365232E+02  0.36987445788E+02  0.00000000000E+00 0. -1.
         -2    1    1    2    0  503 -0.38042634374E+01  0.23416316280E+02  0.80431256839E+01  0.25049713754E+02  0.00000000000E+00 0.  1.
<mgrwt>
<rscale>  2 0.23723328E+02</rscale>
<asrwt>0</asrwt>
<pdfrwt beam="1">  1       21 0.75736653E-02 0.23723328E+02</pdfrwt>
<pdfrwt beam="2">  1       21 0.19705130E-02 0.23723328E+02</pdfrwt>
<totfact> 0.11352840E+08</totfact>
</mgrwt>
</event>
<event>
 4    1  0.7424968E+004  0.2049897E+02  0.7546771E-02  0.1735584E+00
         21   -1    0    0  503  502  0.00000000000E+00  0.00000000000E+00  0.19309461591E+02  0.19309461591E+02  0.00000000000E+00 0. -1.
         21   -1    0    0  501  503 -0.00000000000E+00 -0.00000000000E+00 -0.24090151537E+02  0.24090151537E+02  0.00000000000E+00 0. -1.
          5    1    1    2  501    0  0.37904106025E+01  0.20145481790E+02 -0.91366374260E+01  0.22442945274E+02  0.00000000000E+00 0. -1.
         -5    1    1    2    0  502 -0.37904106025E+01 -0.20145481790E+02  0.43559474809E+01  0.20956667854E+02  0.00000000000E+00 0.  1.
<mgrwt>
<rscale>  2 0.20498967E+02</rscale>
<asrwt>0</asrwt>
<pdfrwt beam="1">  1       21 0.29706864E-02 0.20498967E+02</pdfrwt>
<pdfrwt beam="2">  1       21 0.37061772E-02 0.20498967E+02</pdfrwt>
<totfact> 0.18017725E+08</totfact>
</mgrwt>
</event>
<event>
 4    1  0.7424968E+004  0.2368791E+02  0.7546771E-02  0.1680596E+00
         21   -1    0    0  503  502  0.00000000000E+00  0.00000000000E+00  0.10364250649E+02  0.10364250649E+02  0.00000000000E+00 0. -1.
         21   -1    0    0  501  503 -0.00000000000E+00 -0.00000000000E+00 -0.56027452158E+02  0.56027452158E+02  0.00000000000E+00 0. -1.
          1    1    1    2  501    0 -0.12306127870E+02 -0.20240465233E+02 -0.16738222527E+02  0.29004918710E+02  0.00000000000E+00 0. -1.
         -1    1    1    2    0  502  0.12306127870E+02  0.20240465233E+02 -0.28924978982E+02  0.37386784097E+02  0.00000000000E+00 0.  1.
<mgrwt>
<rscale>  2 0.23687913E+02</rscale>
<asrwt>0</asrwt>
<pdfrwt beam="1">  1       21 0.15945001E-02 0.23687913E+02</pdfrwt>
<pdfrwt beam="2">  1       21 0.86196080E-02 0.23687913E+02</pdfrwt>
<totfact> 0.12698708E+08</totfact>
</mgrwt>
</event>
<event>
 4    1  0.7424968E+004  0.2059073E+02  0.7546771E-02  0.1733830E+00
         21   -1    0    0  503  502  0.00000000000E+00  0.00000000000E+00  0.49250544157E+02  0.49250544157E+02  0.00000000000E+00 0. -1.
         21   -1    0    0  501  503 -0.00000000000E+00 -0.00000000000E+00 -0.95598093509E+01  0.95598093509E+01  0.00000000000E+00 0. -1.
          4    1    1    2  501    0 -0.10915946185E+02 -0.17459098100E+02  0.10569845010E+02  0.23145185485E+02  0.00000000000E+00 0.  1.
         -4    1    1    2    0  502  0.10915946185E+02  0.17459098100E+02  0.29120889797E+02  0.35665168024E+02  0.00000000000E+00 0. -1.
<mgrwt>
<rscale>  2 0.20590726E+02</rscale>
<asrwt>0</asrwt>
<pdfrwt beam="1">  1       21 0.75770067E-02 0.20590726E+02</pdfrwt>
<pdfrwt beam="2">  1       21 0.14707399E-02 0.20590726E+02</pdfrwt>
<totfact> 0.16976447E+08</totfact>
</mgrwt>
</event>
<event>
 4    1  0.7424968E+004  0.3460661E+02  0.7546771E-02  0.1552122E+00
         21   -1    0    0  501  502  0.00000000000E+00  0.00000000000E+00  0.18186568741E+03  0.18186568741E+03  0.00000000000E+00 0. -1.
         21   -1    0    0  502  503 -0.00000000000E+00 -0.00000000000E+00 -0.68233180307E+01  0.68233180307E+01  0.00000000000E+00 0. -1.
          1    1    1    2  501    0  0.24819915533E+02  0.24116168078E+02  0.69895915171E+02  0.77993953147E+02  0.00000000000E+00 0. -1.
         -1    1    1    2    0  503 -0.24819915533E+02 -0.24116168078E+02  0.10514645421E+03  0.11069505229E+03  0.00000000000E+00 0.  1.
<mgrwt>
<rscale>  2 0.34606615E+02</rscale>
<asrwt>0</asrwt>
<pdfrwt beam="1">  1       21 0.27979333E-01 0.34606615E+02</pdfrwt>
<pdfrwt beam="2">  1       21 0.10497414E-02 0.34606615E+02</pdfrwt>
<totfact> 0.34331776E+07</totfact>
</mgrwt>
</event>
<event>
 4    1  0.7424968E+004  0.2855347E+02  0.7546771E-02  0.1614651E+00
         21   -1    0    0  501  502  0.00000000000E+00  0.00000000000E+00  0.65991606804E+01  0.65991606804E+01  0.00000000000E+00 0. -1.
         21   -1    0    0  502  503 -0.00000000000E+00 -0.00000000000E+00 -0.12578261459E+03  0.12578261459E+03  0.00000000000E+00 0. -1.
          5    1    1    2  501    0 -0.15426344855E+02  0.24027663889E+02 -0.68417872460E+02  0.74137075876E+02  0.00000000000E+00 0. -1.
         -5    1    1    2    0  503  0.15426344855E+02 -0.24027663889E+02 -0.50765581445E+02  0.58244699390E+02  0.00000000000E+00 0.  1.
<mgrwt>
<rscale>  2 0.28553472E+02</rscale>
<asrwt>0</asrwt>
<pdfrwt beam="1">  1       21 0.10152556E-02 0.28553472E+02</pdfrwt>
<pdfrwt beam="2">  1       21 0.19351169E-01 0.28553472E+02</pdfrwt>
<totfact> 0.67243117E+07</totfact>
</mgrwt>
</event>
<event>
 4    1  0.7424968E+004  0.2257221E+02  0.7546771E-02  0.1698540E+00
         21   -1    0    0  503  502  0.00000000000E+00  0.00000000000E+00  0.20359804893E+03  0.20359804893E+03  0.00000000000E+00 0. -1.
         21   -1    0    0  501  503 -0.00000000000E+00 -0.00000000000E+00 -0.30657797713E+01  0.30657797713E+01  0.00000000000E+00 0. -1.
          5    1    1    2  501    0 -0.60107921814E+00  0.22564208002E+02  0.14455808682E+03  0.14630975786E+03  0.00000000000E+00 0.  1.
         -5    1    1    2    0  502  0.60107921814E+00 -0.22564208002E+02  0.55974182334E+02  0.60354070840E+02  0.00000000000E+00 0. -1.
<mgrwt>
<rscale>  2 0.22572213E+02</rscale>
<asrwt>0</asrwt>
<pdfrwt beam="1">  1       21 0.31322766E-01 0.22572213E+02</pdfrwt>
<pdfrwt beam="2">  1       21 0.47165858E-03 0.22572213E+02</pdfrwt>
<totfact> 0.84151700E+07</totfact>
</mgrwt>
</event>
<event>
 4    1  0.7424968E+004  0.2321601E+02  0.7546771E-02  0.1688032E+00
         21   -1    0    0  503  502  0.00000000000E+00  0.00000000000E+00  0.36364767771E+02  0.36364767771E+02  0.00000000000E+00 0.  1.
         21   -1    0    0  501  503 -0.00000000000E+00 -0.00000000000E+00 -0.17803175719E+02  0.17803175719E+02  0.00000000000E+00 0.  1.
          4    1    1    2  501    0 -0.18337505307E+02  0.14237945299E+02  0.20364584941E+02  0.30882025630E+02  0.00000000000E+00 0. -1.
         -4    1    1    2    0  502  0.18337505307E+02 -0.14237945299E+02 -0.18029928896E+01  0.23285917860E+02  0.00000000000E+00 0.  1.
<mgrwt>
<rscale>  2 0.23216011E+02</rscale>
<asrwt>0</asrwt>
<pdfrwt beam="1">  1       21 0.55945797E-02 0.23216011E+02</pdfrwt>
<pdfrwt beam="2">  1       21 0.27389501E-02 0.23216011E+02</pdfrwt>
<totfact> 0.11066441E+08</totfact>
</mgrwt>
</event>
<event>
 4    1  0.7424968E+004  0.2567212E+02  0.7546771E-02  0.1651532E+00
         21   -1    0    0  501  502  0.00000000000E+00  0.00000000000E+00  0.20810337853E+02  0.20810337853E+02  0.00000000000E+00 0.  1.
         21   -1    0    0  502  503 -0.00000000000E+00 -0.00000000000E+00 -0.34487947571E+02  0.34487947571E+02  0.00000000000E+00 0.  1.
          2    1    1    2  501    0 -0.22353156178E+02  0.12625142175E+02  0.10649809376E+01  0.25694201495E+02  0.00000000000E+00 0.  1.
         -2    1    1    2    0  503  0.22353156178E+02 -0.12625142175E+02 -0.14742590656E+02  0.29604083929E+02  0.00000000000E+00 0. -1.
<mgrwt>
<rscale>  2 0.25672121E+02</rscale>
<asrwt>0</asrwt>
<pdfrwt beam="1">  1       21 0.32015904E-02 0.25672121E+02</pdfrwt>
<pdfrwt beam="2">  1       21 0.53058381E-02 0.25672121E+02</pdfrwt>
<totfact> 0.97110859E+07</totfact>
</mgrwt>
</event>
<event>
 4    1  0.7424968E+004  0.2647015E+02  0.7546771E-02  0.1640741E+00
         21   -1    0    0  501  502  0.00000000000E+00  0.00000000000E+00  0.47157513891E+00  0.47157513891E+00  0.00000000000E+00 0. -1.
         21   -1    0    0  502  503 -0.00000000000E+00 -0.00000000000E+00 -0.16840847773E+04  0.16840847773E+04  0.00000000000E+00 0. -1.
          3    1    1    2  501    0 -0.41561778630E+00  0.26466882680E+02 -0.11308166712E+04  0.11311264353E+04  0.00000000000E+00 0. -1.
         -3    1    1    2    0  503  0.41561778630E+00 -0.26466882680E+02 -0.55279653090E+03  0.55342991715E+03  0.00000000000E+00 0.  1.
<mgrwt>
<rscale>  2 0.26470146E+02</rscale>
<asrwt>0</asrwt>
<pdfrwt beam="1">  1       21 0.72549013E-04 0.26470146E+02</pdfrwt>
<pdfrwt beam="2">  1       21 0.25909357E+00 0.26470146E+02</pdfrwt>
<totfact> 0.12224487E+07</totfact>
</mgrwt>
</event>
<event>
 4    1  0.7424968E+004  0.2072243E+02  0.7546771E-02  0.1731332E+00
         21   -1    0    0  503  502  0.00000000000E+00  0.00000000000E+00  0.50401154591E+01  0.50401154591E+01  0.00000000000E+00 0.  1.
         21   -1    0    0  501  503 -0.00000000000E+00 -0.00000000000E+00 -0.86250214800E+02  0.86250214800E+02  0.00000000000E+00 0.  1.
          3    1    1    2  501    0 -0.18798492739E+02  0.87198550441E+01 -0.45641189589E+02  0.50125217090E+02  0.00000000000E+00 0.  1.
         -3    1    1    2    0  502  0.18798492739E+02 -0.87198550441E+01 -0.35568909752E+02  0.41165113169E+02  0.00000000000E+00 0. -1.
<mgrwt>
<rscale>  2 0.20722432E+02</rscale>
<asrwt>0</asrwt>
<pdfrwt beam="1">  1       21 0.77540235E-03 0.20722432E+02</pdfrwt>
<pdfrwt beam="2">  1       21 0.13269264E-01 0.20722432E+02</pdfrwt>
<totfact> 0.17640680E+08</totfact>
</mgrwt>
</event>
<event>
 4    1  0.7424968E+004  0.3050812E+02  0.7546771E-02  0.1592539E+00
         21   -1    0    0  501  502  0.00000000000E+00  0.00000000000E+00  0.13105395867E+01  0.13105395867E+01  0.00000000000E+00 0. -1.
         21   -1    0    0  502  503 -0.00000000000E+00 -0.00000000000E+00 -0.72916086854E+03  0.72916086854E+03  0.00000000000E+00 0. -1.
          1    1    1    2  501    0 -0.41124626375E+01 -0.30229670318E+02 -0.42282170307E+03  0.42392090996E+03  0.00000000000E+00 0. -1.
         -1    1    1    2    0  503  0.41124626375E+01  0.30229670318E+02 -0.30502862588E+03  0.30655049816E+03  0.00000000000E+00 0.  1.
<mgrwt>
<rscale>  2 0.30508119E+02</rscale>
<asrwt>0</asrwt>
<pdfrwt beam="1">  1       21 0.20162177E-03 0.30508119E+02</pdfrwt>
<pdfrwt beam="2">  1       21 0.11217843E+00 0.30508119E+02</pdfrwt>
<totfact> 0.23680017E+07</totfact>
</mgrwt>
</event>
<event>
 4    1  0.7424968E+004  0.3091670E+02  0.7546771E-02  0.1588171E+00
         21   -1    0    0  501  502  0.00000000000E+00  0.00000000000E+00  0.22759304407E+02  0.22759304407E+02  0.00000000000E+00 0. -1.
         21   -1    0    0  502  503 -0.00000000000E+00 -0.00000000000E+00 -0.45934244531E+02  0.45934244531E+02  0.00000000000E+00 0. -1.
          5    1    1    2  501    0  0.30899556280E+02  0.10295747799E+01 -0.15328616419E+01  0.30954680863E+02  0.00000000000E+00 0. -1.
         -5    1    1    2    0  503 -0.30899556280E+02 -0.10295747799E+01 -0.21642078483E+02  0.37738868075E+02  0.00000000000E+00 0.  1.
<mgrwt>
<rscale>  2 0.30916704E+02</rscale>
<asrwt>0</asrwt>
<pdfrwt beam="1">  1       21 0.35014315E-02 0.30916704E+02</pdfrwt>
<pdfrwt beam="2">  1       21 0.70668068E-02 0.30916704E+02</pdfrwt>
<totfact> 0.55463710E+07</totfact>
</mgrwt>
</event>
<event>
 4    1  0.7424968E+004  0.2101086E+02  0.7546771E-02  0.1725942E+00
         21   -1    0    0  501  502  0.00000000000E+00  0.00000000000E+00  0.49966688360E+02  0.49966688360E+02  0.00000000000E+00 0.  1.
         21   -1    0    0  502  503 -0.00000000000E+00 -0.00000000000E+00 -0.18825204320E+02  0.18825204320E+02  0.00000000000E+00 0.  1.
          4    1    1    2  501    0 -0.61981672156E+01 -0.20075828981E+02  0.40627471466E+02  0.45738907112E+02  0.00000000000E+00 0. -1.
         -4    1    1    2    0  503  0.61981672156E+01  0.20075828981E+02 -0.94859874257E+01  0.23052985567E+02  0.00000000000E+00 0.  1.
<mgrwt>
<rscale>  2 0.21010859E+02</rscale>
<asrwt>0</asrwt>
<pdfrwt beam="1">  1       21 0.76871827E-02 0.21010859E+02</pdfrwt>
<pdfrwt beam="2">  1       21 0.28961853E-02 0.21010859E+02</pdfrwt>
<totfact> 0.59134779E+07</totfact>
</mgrwt>
</event>
<event>
 4    1  0.7424968E+004  0.2355927E+02  0.7546771E-02  0.1682602E+00
         21   -1    0    0  501  502  0.00000000000E+00  0.00000000000E+00  0.57966747544E+01  0.57966747544E+01  0.00000000000E+00 0. -1.
         21   -1    0    0  502  503 -0.00000000000E+00 -0.00000000000E+00 -0.10030736794E+03  0.10030736794E+03  0.00000000000E+00 0. -1.
          1    1    1    2  501    0 -0.12792106210E+01  0.23524510373E+02 -0.35948745876E+02  0.42980824773E+02  0.00000000000E+00 0. -1.
         -1    1    1    2    0  503  0.12792106210E+01 -0.23524510373E+02 -0.58561947313E+02  0.63123217924E+02  0.00000000000E+00 0.  1.
<mgrwt>
<rscale>  2 0.23559265E+02</rscale>
<asrwt>0</asrwt>
<pdfrwt beam="1">  1       21 0.89179616E-03 0.23559265E+02</pdfrwt>
<pdfrwt beam="2">  1       21 0.15431902E-01 0.23559265E+02</pdfrwt>
<totfact> 0.11517147E+08</totfact>
</mgrwt>
</event>
<event>
 4    1  0.7424968E+004  0.2610886E+02  0.7546771E-02  0.1645567E+00
         21   -1    0    0  501  502  0.00000000000E+00  0.00000000000E+00  0.48528047205E+02  0.48528047205E+02  0.00000000000E+00 0.  1.
         21   -1    0    0  502  503 -0.00000000000E+00 -0.00000000000E+00 -0.14485811726E+02  0.14485811726E+02  0.00000000000E+00 0.  1.
          5    1    1    2  501    0 -0.25595078757E+02  0.51540836649E+01  0.11537307956E+02  0.28544388413E+02  0.00000000000E+00 0. -1.
         -5    1    1    2    0  503  0.25595078757E+02 -0.51540836649E+01  0.22504927523E+02  0.34469470518E+02  0.00000000000E+00 0.  1.
<mgrwt>
<rscale>  2 0.26108861E+02</rscale>
<asrwt>0</asrwt>
<pdfrwt beam="1">  1       21 0.74658533E-02 0.26108861E+02</pdfrwt>
<pdfrwt beam="2">  1       21 0.22285864E-02 0.26108861E+02</pdfrwt>
<totfact> 0.98676498E+07</totfact>
</mgrwt>
</event>
<event>
 4    1  0.7424968E+004  0.2203244E+02  0.7546771E-02  0.1707692E+00
         21   -1    0    0  503  502  0.00000000000E+00  0.00000000000E+00  0.86663747752E+00  0.86663747752E+00  0.00000000000E+00 0. -1.
         21   -1    0    0  501  503 -0.00000000000E+00 -0.00000000000E+00 -0.97332543285E+03  0.97332543285E+03  0.00000000000E+00 0. -1.
          4    1    1    2  501    0 -0.13156652545E+02 -0.17672881607E+02 -0.16886064584E+03  0.17029194333E+03  0.00000000000E+00 0.  1.
         -4    1    1    2    0  502  0.13156652545E+02  0.17672881607E+02 -0.80359814953E+03  0.80390012700E+03  0.00000000000E+00 0. -1.
<mgrwt>
<rscale>  2 0.22032436E+02</rscale>
<asrwt>0</asrwt>
<pdfrwt beam="1">  1       21 0.13332912E-03 0.22032436E+02</pdfrwt>
<pdfrwt beam="2">  1       21 0.14974206E+00 0.22032436E+02</pdfrwt>
<totfact> 0.20881837E+07</totfact>
</mgrwt>
</event>
<event>
 4    1  0.7424968E+004  0.2039351E+02  0.7546771E-02  0.1737614E+00
         21   -1    0    0  501  502  0.00000000000E+00  0.00000000000E+00  0.12996545939E+03  0.12996545939E+03  0.00000000000E+00 0. -1.
         21   -1    0    0  502  503 -0.00000000000E+00 -0.00000000000E+00 -0.14023839345E+02  0.14023839345E+02  0.00000000000E+00 0. -1.
          5    1    1    2  501    0  0.48892677926E+00  0.20387645421E+02  0.12122023059E+03  0.12292371390E+03  0.00000000000E+00 0. -1.
         -5    1    1    2    0  503 -0.48892677926E+00 -0.20387645421E+02 -0.52786105420E+01  0.21065584836E+02  0.00000000000E+00 0.  1.
<mgrwt>
<rscale>  2 0.20393507E+02</rscale>
<asrwt>0</asrwt>
<pdfrwt beam="1">  1       21 0.19994685E-01 0.20393507E+02</pdfrwt>
<pdfrwt beam="2">  1       21 0.21575138E-02 0.20393507E+02</pdfrwt>
<totfact> 0.18658844E+07</totfact>
</mgrwt>
</event>
<event>
 4    1  0.7424968E+004  0.2244210E+02  0.7546771E-02  0.1700716E+00
         21   -1    0    0  501  502  0.00000000000E+00  0.00000000000E+00  0.19008539150E+03  0.19008539150E+03  0.00000000000E+00 0. -1.
         21   -1    0    0  502  503 -0.00000000000E+00 -0.00000000000E+00 -0.45330859012E+01  0.45330859012E+01  0.00000000000E+00 0. -1.
          3    1    1    2  501    0  0.18820560957E+02  0.12224341120E+02  0.30051302229E+02  0.37506383406E+02  0.00000000000E+00 0.  1.
         -3    1    1    2    0  503 -0.18820560957E+02 -0.12224341120E+02  0.15550100337E+03  0.15711209399E+03  0.00000000000E+00 0. -1.
<mgrwt>
<rscale>  2 0.22442104E+02</rscale>
<asrwt>0</asrwt>
<pdfrwt beam="1">  1       21 0.29243900E-01 0.22442104E+02</pdfrwt>
<pdfrwt beam="2">  1       21 0.69739798E-03 0.22442104E+02</pdfrwt>
<totfact> 0.53392378E+07</totfact>
</mgrwt>
</event>
<event>
 4    1  0.7424968E+004  0.2634085E+02  0.7546771E-02  0.1642458E+00
         21   -1    0    0  501  502  0.00000000000E+00  0.00000000000E+00  0.10087098545E+02  0.10087098545E+02  0.00000000000E+00 0.  1.
         21   -1    0    0  502  503 -0.00000000000E+00 -0.00000000000E+00 -0.15641012226E+03  0.15641012226E+03  0.00000000000E+00 0.  1.
          3    1    1    2  501    0 -0.85128182788E+00 -0.26327088190E+02 -0.13547170324E+03  0.13800877737E+03  0.00000000000E+00 0.  1.
         -3    1    1    2    0  503  0.85128182788E+00  0.26327088190E+02 -0.10851320482E+02  0.28488443438E+02  0.00000000000E+00 0. -1.
<mgrwt>
<rscale>  2 0.26340848E+02</rscale>
<asrwt>0</asrwt>
<pdfrwt beam="1">  1       21 0.15518613E-02 0.26340848E+02</pdfrwt>
<pdfrwt beam="2">  1       21 0.24063096E-01 0.26340848E+02</pdfrwt>
<totfact> 0.23554804E+07</totfact>
</mgrwt>
</event>
<event>
 4    1  0.7424968E+004  0.3948021E+02  0.7546771E-02  0.1512072E+00
         21   -1    0    0  501  502  0.00000000000E+00  0.00000000000E+00  0.11250839844E+03  0.11250839844E+03  0.00000000000E+00 0. -1.
         21   -1    0    0  502  503 -0.00000000000E+00 -0.00000000000E+00 -0.14567563197E+02  0.14567563197E+02  0.00000000000E+00 0. -1.
          3    1    1    2  501    0 -0.36071194198E+02  0.16048551739E+02  0.34907748014E+02  0.52699506024E+02  0.00000000000E+00 0. -1.
         -3    1    1    2    0  503  0.36071194198E+02 -0.16048551739E+02  0.63033087226E+02  0.74376455609E+02  0.00000000000E+00 0.  1.
<mgrwt>
<rscale>  2 0.39480211E+02</rscale>
<asrwt>0</asrwt>
<pdfrwt beam="1">  1       21 0.17308984E-01 0.39480211E+02</pdfrwt>
<pdfrwt beam="2">  1       21 0.22411636E-02 0.39480211E+02</pdfrwt>
<totfact> 0.25751257E+07</totfact>
</mgrwt>
</event>
<event>
 4    1  0.7424968E+004  0.2932351E+02  0.7546771E-02  0.1605689E+00
         21   -1    0    0  503  502  0.00000000000E+00  0.00000000000E+00  0.30311076581E+01  0.30311076581E+01  0.00000000000E+00 0. -1.
         21   -1    0    0  501  503 -0.00000000000E+00 -0.00000000000E+00 -0.34002952894E+03  0.34002952894E+03  0.00000000000E+00 0. -1.
          4    1    1    2  501    0 -0.28154710122E+02 -0.81963625689E+01 -0.98672216565E+02  0.10293723516E+03  0.00000000000E+00 0.  1.
         -4    1    1    2    0  502  0.28154710122E+02  0.81963625689E+01 -0.23832620471E+03  0.24012340143E+03  0.00000000000E+00 0. -1.
<mgrwt>
<rscale>  2 0.29323507E+02</rscale>
<asrwt>0</asrwt>
<pdfrwt beam="1">  1       21 0.46632480E-03 0.29323507E+02</pdfrwt>
<pdfrwt beam="2">  1       21 0.52312174E-01 0.29323507E+02</pdfrwt>
<totfact> 0.34312059E+07</totfact>
</mgrwt>
</event>
<event>
 4    1  0.7424968E+004  0.2227819E+02  0.7546771E-02  0.1703485E+00
         21   -1    0    0  503  502  0.00000000000E+00  0.00000000000E+00  0.42586843327E+00  0.42586843327E+00  0.00000000000E+00 0. -1.
         21   -1    0    0  501  503 -0.00000000000E+00 -0.00000000000E+00 -0.13252069155E+04  0.13252069155E+04  0.00000000000E+00 0. -1.
          4    1    1    2  501    0 -0.14422264841E+02 -0.16979875007E+02 -0.43223855386E+03  0.43281229802E+03  0.00000000000E+00 0.  1.
         -4    1    1    2    0  502  0.14422264841E+02  0.16979875007E+02 -0.89254249320E+03  0.89282048590E+03  0.00000000000E+00 0. -1.
<mgrwt>
<rscale>  2 0.22278193E+02</rscale>
<asrwt>0</asrwt>
<pdfrwt beam="1">  1       21 0.65519028E-04 0.22278193E+02</pdfrwt>
<pdfrwt beam="2">  1       21 0.20387547E+00 0.22278193E+02</pdfrwt>
<totfact> 0.26822168E+07</totfact>
</mgrwt>
</event>
<event>
 4    1  0.7424968E+004  0.2658823E+02  0.7546771E-02  0.1639185E+00
         21   -1    0    0  501  502  0.00000000000E+00  0.00000000000E+00  0.69701558075E+02  0.69701558075E+02  0.00000000000E+00 0.  1.
         21   -1    0    0  502  503 -0.00000000000E+00 -0.00000000000E+00 -0.10144141201E+02  0.10144141201E+02  0.00000000000E+00 0.  1.
          5    1    1    2  501    0 -0.15259847274E+02 -0.21773169349E+02  0.30317128265E+02  0.40324460425E+02  0.00000000000E+00 0. -1.
         -5    1    1    2    0  503  0.15259847274E+02  0.21773169349E+02  0.29240288608E+02  0.39521238850E+02  0.00000000000E+00 0.  1.
<mgrwt>
<rscale>  2 0.26588228E+02</rscale>
<asrwt>0</asrwt>
<pdfrwt beam="1">  1       21 0.10723316E-01 0.26588228E+02</pdfrwt>
<pdfrwt beam="2">  1       21 0.15606372E-02 0.26588228E+02</pdfrwt>
<totfact> 0.94304177E+07</totfact>
</mgrwt>
</event>
<event>
 4    1  0.7424968E+004  0.2466007E+02  0.7546771E-02  0.1665933E+00
         21   -1    0    0  503  502  0.00000000000E+00  0.00000000000E+00  0.15051079567E+03  0.15051079567E+03  0.00000000000E+00 0.  1.
         21   -1    0    0  501  503 -0.00000000000E+00 -0.00000000000E+00 -0.40540665942E+01  0.40540665942E+01  0.00000000000E+00 0.  1.
          2    1    1    2  501    0  0.17985641507E+02 -0.16871154506E+02  0.68736182990E+02  0.73025899562E+02  0.00000000000E+00 0.  1.
         -2    1    1    2    0  502 -0.17985641507E+02  0.16871154506E+02  0.77720546088E+02  0.81538962705E+02  0.00000000000E+00 0. -1.
<mgrwt>
<rscale>  2 0.24660072E+02</rscale>
<asrwt>0</asrwt>
<pdfrwt beam="1">  1       21 0.23155503E-01 0.24660072E+02</pdfrwt>
<pdfrwt beam="2">  1       21 0.62370267E-03 0.24660072E+02</pdfrwt>
<totfact> 0.98143179E+07</totfact>
</mgrwt>
</event>
<event>
 4    1  0.7424968E+004  0.3164224E+02  0.7546771E-02  0.1580614E+00
         21   -1    0    0  501  502  0.00000000000E+00  0.00000000000E+00  0.24940736660E+03  0.24940736660E+03  0.00000000000E+00 0.  1.
         21   -1    0    0  502  503 -0.00000000000E+00 -0.00000000000E+00 -0.40149200592E+01  0.40149200592E+01  0.00000000000E+00 0.  1.
          4    1    1    2  501    0  0.26740160050E+02  0.16917305376E+02  0.12407904506E+03  0.12805014957E+03  0.00000000000E+00 0. -1.
         -4    1    1    2    0  503 -0.26740160050E+02 -0.16917305376E+02  0.12131340148E+03  0.12537213710E+03  0.00000000000E+00 0.  1.
<mgrwt>
<rscale>  2 0.31642240E+02</rscale>
<asrwt>0</asrwt>
<pdfrwt beam="1">  1       21 0.38370352E-01 0.31642240E+02</pdfrwt>
<pdfrwt beam="2">  1       21 0.61768020E-03 0.31642240E+02</pdfrwt>
<totfact> 0.41728028E+07</totfact>
</mgrwt>
</event>
<event>
 4    1  0.7424968E+004  0.2235333E+02  0.7546771E-02  0.1702212E+00
         21   -1    0    0  501  502  0.00000000000E+00  0.00000000000E+00  0.65664312863E+01  0.65664312863E+01  0.00000000000E+00 0. -1.
         21   -1    0    0  502  503 -0.00000000000E+00 -0.00000000000E+00 -0.14412583178E+03  0.14412583178E+03  0.00000000000E+00 0. -1.
          1    1    1    2  501    0  0.17983875172E+02 -0.13275978642E+02 -0.17013829164E+02  0.28091667055E+02  0.00000000000E+00 0. -1.
         -1    1    1    2    0  503 -0.17983875172E+02  0.13275978642E+02 -0.12054557133E+03  0.12260059601E+03  0.00000000000E+00 0.  1.
<mgrwt>
<rscale>  2 0.22353330E+02</rscale>
<asrwt>0</asrwt>
<pdfrwt beam="1">  1       21 0.10102203E-02 0.22353330E+02</pdfrwt>
<pdfrwt beam="2">  1       21 0.22173203E-01 0.22353330E+02</pdfrwt>
<totfact> 0.50263325E+07</totfact>
</mgrwt>
</event>
<event>
 4    1  0.7424968E+004  0.2075778E+02  0.7546771E-02  0.1730665E+00
         21   -1    0    0  501  502  0.00000000000E+00  0.00000000000E+00  0.14617198615E+02  0.14617198615E+02  0.00000000000E+00 0. -1.
         21   -1    0    0  502  503 -0.00000000000E+00 -0.00000000000E+00 -0.29601858301E+02  0.29601858301E+02  0.00000000000E+00 0. -1.
          1    1    1    2  501    0 -0.17603968958E+02  0.10999358352E+02 -0.89225515466E+01  0.22594192469E+02  0.00000000000E+00 0.  1.
         -1    1    1    2    0  503  0.17603968958E+02 -0.10999358352E+02 -0.60621081399E+01  0.21624864447E+02  0.00000000000E+00 0. -1.
<mgrwt>
<rscale>  2 0.20757784E+02</rscale>
<asrwt>0</asrwt>
<pdfrwt beam="1">  1       21 0.22487998E-02 0.20757784E+02</pdfrwt>
<pdfrwt beam="2">  1       21 0.45541320E-02 0.20757784E+02</pdfrwt>
<totfact> 0.20105609E+08</totfact>
</mgrwt>
</event>
<event>
 4    1  0.7424968E+004  0.3073946E+02  0.7546771E-02  0.1590056E+00
         21   -1    0    0  501  502  0.00000000000E+00  0.00000000000E+00  0.55171522124E+02  0.55171522124E+02  0.00000000000E+00 0. -1.
         21   -1    0    0  502  503 -0.00000000000E+00 -0.00000000000E+00 -0.17818588427E+02  0.17818588427E+02  0.00000000000E+00 0. -1.
          5    1    1    2  501    0  0.86139441047E+01  0.29507866799E+02  0.11485799987E+02  0.32815207410E+02  0.00000000000E+00 0.  1.
         -5    1    1    2    0  503 -0.86139441047E+01 -0.29507866799E+02  0.25867133710E+02  0.40174903141E+02  0.00000000000E+00 0. -1.
<mgrwt>
<rscale>  2 0.30739457E+02</rscale>
<asrwt>0</asrwt>
<pdfrwt beam="1">  1       21 0.84879264E-02 0.30739457E+02</pdfrwt>
<pdfrwt beam="2">  1       21 0.27413213E-02 0.30739457E+02</pdfrwt>
<totfact> 0.60239900E+07</totfact>
</mgrwt>
</event>
<event>
 4    1  0.7424968E+004  0.2690947E+02  0.7546771E-02  0.1634999E+00
         21   -1    0    0  503  502  0.00000000000E+00  0.00000000000E+00  0.22456454722E+01  0.22456454722E+01  0.00000000000E+00 0.  1.
         21   -1    0    0  501  503 -0.00000000000E+00 -0.00000000000E+00 -0.51629440212E+03  0.51629440212E+03  0.00000000000E+00 0.  1.
          1    1    1    2  501    0  0.33683314856E+01 -0.26697827152E+02 -0.41588805878E+03  0.41675771986E+03  0.00000000000E+00 0.  1.
         -1    1    1    2    0  502 -0.33683314856E+01  0.26697827152E+02 -0.98160697875E+02  0.10178232773E+03  0.00000000000E+00 0. -1.
<mgrwt>
<rscale>  2 0.26909471E+02</rscale>
<asrwt>0</asrwt>
<pdfrwt beam="1">  1       21 0.34548385E-03 0.26909471E+02</pdfrwt>
<pdfrwt beam="2">  1       21 0.79429924E-01 0.26909471E+02</pdfrwt>
<totfact> 0.22419248E+07</totfact>
</mgrwt>
</event>
<event>
 4    1  0.7424968E+004  0.3171903E+02  0.7546771E-02  0.1579829E+00
         21   -1    0    0  501  502  0.00000000000E+00  0.00000000000E+00  0.51539934080E+03  0.51539934080E+03  0.00000000000E+00 0. -1.
         21   -1    0    0  502  503 -0.00000000000E+00 -0.00000000000E+00 -0.19564772342E+01  0.19564772342E+01  0.00000000000E+00 0. -1.
          3    1    1    2  501    0 -0.24595935011E+02 -0.20028401617E+02  0.26899528071E+03  0.27085892626E+03  0.00000000000E+00 0. -1.
         -3    1    1    2    0  503  0.24595935011E+02  0.20028401617E+02  0.24444758286E+03  0.24649689178E+03  0.00000000000E+00 0.  1.
<mgrwt>
<rscale>  2 0.31719030E+02</rscale>
<asrwt>0</asrwt>
<pdfrwt beam="1">  1       21 0.79292098E-01 0.31719030E+02</pdfrwt>
<pdfrwt beam="2">  1       21 0.30099691E-03 0.31719030E+02</pdfrwt>
<totfact> 0.28359772E+07</totfact>
</mgrwt>
</event>
<event>
 4    1  0.7424968E+004  0.2537177E+02  0.7546771E-02  0.1655719E+00
         21   -1    0    0  501  502  0.00000000000E+00  0.00000000000E+00  0.10909945022E+02  0.10909945022E+02  0.00000000000E+00 0.  1.
         21   -1    0    0  502  503 -0.00000000000E+00 -0.00000000000E+00 -0.73993056067E+02  0.73993056067E+02  0.00000000000E+00 0.  1.
          5    1    1    2  501    0 -0.17658453892E+01 -0.25310249347E+02 -0.50648414820E+02  0.56647937789E+02  0.00000000000E+00 0. -1.
         -5    1    1    2    0  503  0.17658453892E+01  0.25310249347E+02 -0.12434696225E+02  0.28255063301E+02  0.00000000000E+00 0.  1.
<mgrwt>
<rscale>  2 0.25371774E+02</rscale>
<asrwt>0</asrwt>
<pdfrwt beam="1">  1       21 0.16784531E-02 0.25371774E+02</pdfrwt>
<pdfrwt beam="2">  1       21 0.11383547E-01 0.25371774E+02</pdfrwt>
<totfact> 0.75433785E+07</totfact>
</mgrwt>
</event>
<event>
 4    1  0.7424968E+004  0.2591177E+02  0.7546771E-02  0.1648241E+00
         21   -1    0    0  503  502  0.00000000000E+00  0.00000000000E+00  0.25261727035E+01  0.25261727035E+01  0.00000000000E+00 0.  1.
         21   -1    0    0  501  503 -0.00000000000E+00 -0.00000000000E+00 -0.27359303575E+03  0.27359303575E+03  0.00000000000E+00 0.  1.
          5    1    1    2  501    0  0.68457117673E+01  0.24991116842E+02 -0.11221091933E+03  0.11516384028E+03  0.00000000000E+00 0.  1.
         -5    1    1    2    0  502 -0.68457117673E+01 -0.24991116842E+02 -0.15885594372E+03  0.16095536818E+03  0.00000000000E+00 0. -1.
<mgrwt>
<rscale>  2 0.25911767E+02</rscale>
<asrwt>0</asrwt>
<pdfrwt beam="1">  1       21 0.38864226E-03 0.25911767E+02</pdfrwt>
<pdfrwt beam="2">  1       21 0.42091203E-01 0.25911767E+02</pdfrwt>
<totfact> 0.66719286E+07</totfact>
</mgrwt>
</event>
<event>
 4    1  0.7424968E+004  0.2369275E+02  0.7546771E-02  0.1680521E+00
         21   -1    0    0  503  502  0.00000000000E+00  0.00000000000E+00  0.49679530387E+01  0.49679530387E+01  0.00000000000E+00 0. -1.
         21   -1    0    0  501  503 -0.00000000000E+00 -0.00000000000E+00 -0.12089069067E+03  0.12089069067E+03  0.00000000000E+00 0. -1.
          4    1    1    2  501    0 -0.16085618632E+02 -0.17395381685E+02 -0.41877416634E+02  0.48115116696E+02  0.00000000000E+00 0. -1.
         -4    1    1    2    0  502  0.16085618632E+02  0.17395381685E+02 -0.74045320997E+02  0.77743527012E+02  0.00000000000E+00 0.  1.
<mgrwt>
<rscale>  2 0.23692751E+02</rscale>
<asrwt>0</asrwt>
<pdfrwt beam="1">  1       21 0.76430057E-03 0.23692751E+02</pdfrwt>
<pdfrwt beam="2">  1       21 0.18598565E-01 0.23692751E+02</pdfrwt>
<totfact> 0.10536264E+08</totfact>
</mgrwt>
</event>
<event>
 4    1  0.7424968E+004  0.2262126E+02  0.7546771E-02  0.1697724E+00
         21   -1    0    0  503  502  0.00000000000E+00  0.00000000000E+00  0.11054509534E+02  0.11054509534E+02  0.00000000000E+00 0.  1.
         21   -1    0    0  501  503 -0.00000000000E+00 -0.00000000000E+00 -0.47354558137E+02  0.47354558137E+02  0.00000000000E+00 0.  1.
          4    1    1    2  501    0 -0.21922734039E+02  0.55780991848E+01 -0.22527285839E+02  0.31924912929E+02  0.00000000000E+00 0. -1.
         -4    1    1    2    0  502  0.21922734039E+02 -0.55780991848E+01 -0.13772762764E+02  0.26484154742E+02  0.00000000000E+00 0.  1.
<mgrwt>
<rscale>  2 0.22621261E+02</rscale>
<asrwt>0</asrwt>
<pdfrwt beam="1">  1       21 0.17006938E-02 0.22621261E+02</pdfrwt>
<pdfrwt beam="2">  1       21 0.72853167E-02 0.22621261E+02</pdfrwt>
<totfact> 0.14936047E+08</totfact>
</mgrwt>
</event>
<event>
 4    1  0.7424968E+004  0.3538117E+02  0.7546771E-02  0.1545241E+00
         21   -1    0    0  501  502  0.00000000000E+00  0.00000000000E+00  0.46889554313E+03  0.46889554313E+03  0.00000000000E+00 0. -1.
         21   -1    0    0  502  503 -0.00000000000E+00 -0.00000000000E+00 -0.42841508402E+01  0.42841508402E+01  0.00000000000E+00 0. -1.
          3    1    1    2  501    0  0.20755015698E+02 -0.28654083132E+02  0.37754071373E+03  0.37919495999E+03  0.00000000000E+00 0.  1.
         -3    1    1    2    0  503 -0.20755015698E+02  0.28654083132E+02  0.87070678557E+02  0.93984733979E+02  0.00000000000E+00 0. -1.
<mgrwt>
<rscale>  2 0.35381170E+02</rscale>
<asrwt>0</asrwt>
<pdfrwt beam="1">  1       21 0.72137735E-01 0.35381170E+02</pdfrwt>
<pdfrwt beam="2">  1       21 0.65910050E-03 0.35381170E+02</pdfrwt>
<totfact> 0.10961452E+07</totfact>
</mgrwt>
</event>
<event>
 4    1  0.7424968E+004  0.2040815E+02  0.7546771E-02  0.1737331E+00
         21   -1    0    0  501  502  0.00000000000E+00  0.00000000000E+00  0.17656138936E+02  0.17656138936E+02  0.00000000000E+00 0. -1.
         21   -1    0    0  502  503 -0.00000000000E+00 -0.00000000000E+00 -0.23615923691E+02  0.23615923691E+02  0.00000000000E+00 0. -1.
          3    1    1    2  501    0 -0.19489862235E+02 -0.60529196416E+01 -0.22845172431E+01  0.20535617477E+02  0.00000000000E+00 0. -1.
         -3    1    1    2    0  503  0.19489862235E+02  0.60529196416E+01 -0.36752675115E+01  0.20736445149E+02  0.00000000000E+00 0.  1.
<mgrwt>
<rscale>  2 0.20408150E+02</rscale>
<asrwt>0</asrwt>
<pdfrwt beam="1">  1       21 0.27163291E-02 0.20408150E+02</pdfrwt>
<pdfrwt beam="2">  1       21 0.36332190E-02 0.20408150E+02</pdfrwt>
<totfact> 0.21315754E+08</totfact>
</mgrwt>
</event>
<event>
 4    1  0.7424968E+004  0.2526254E+02  0.7546771E-02  0.1657259E+00
         21   -1    0    0  503  502  0.00000000000E+00  0.00000000000E+00  0.20405440890E+02  0.20405440890E+02  0.00000000000E+00 0. -1.
         21   -1    0    0  501  503 -0.00000000000E+00 -0.00000000000E+00 -0.31518497740E+02  0.31518497740E+02  0.00000000000E+00 0. -1.
          4    1    1    2  501    0 -0.24664643067E+02  0.54636183393E+01 -0.78348782992E+01  0.26449594722E+02  0.00000000000E+00 0.  1.
         -4    1    1    2    0  502  0.24664643067E+02 -0.54636183393E+01 -0.32781785510E+01  0.25474343909E+02  0.00000000000E+00 0. -1.
<mgrwt>
<rscale>  2 0.25262536E+02</rscale>
<asrwt>0</asrwt>
<pdfrwt beam="1">  1       21 0.31392986E-02 0.25262536E+02</pdfrwt>
<pdfrwt beam="2">  1       21 0.48489997E-02 0.25262536E+02</pdfrwt>
<totfact> 0.11516251E+08</totfact>
</mgrwt>
</event>
<event>
 4    1  0.7424968E+004  0.3916250E+02  0.7546771E-02  0.1514467E+00
         21   -1    0    0  503  502  0.00000000000E+00  0.00000000000E+00  0.44691123540E+03  0.44691123540E+03  0.00000000000E+00 0. -1.
         21   -1    0    0  501  503 -0.00000000000E+00 -0.00000000000E+00 -0.35125197224E+01  0.35125197224E+01  0.00000000000E+00 0. -1.
          5    1    1    2  501    0  0.14291183844E+01 -0.39136413590E+02  0.18755458122E+03  0.19159964035E+03  0.00000000000E+00 0. -1.
         -5    1    1    2    0  502 -0.14291183844E+01  0.39136413590E+02  0.25584413446E+03  0.25882411477E+03  0.00000000000E+00 0.  1.
<mgrwt>
<rscale>  2 0.39162498E+02</rscale>
<asrwt>0</asrwt>
<pdfrwt beam="1">  1       21 0.68755530E-01 0.39162498E+02</pdfrwt>
<pdfrwt beam="2">  1       21 0.54038800E-03 0.39162498E+02</pdfrwt>
<totfact> 0.16563311E+07</totfact>
</mgrwt>
</event>
<event>
 4    1  0.7424968E+004  0.2126766E+02  0.7546771E-02  0.1721234E+00
         21   -1    0    0  503  502  0.00000000000E+00  0.00000000000E+00  0.22074628106E+03  0.22074628106E+03  0.00000000000E+00 0.  1.
         21   -1    0    0  501  503 -0.00000000000E+00 -0.00000000000E+00 -0.25945917037E+01  0.25945917037E+01  0.00000000000E+00 0.  1.
          2    1    1    2  501    0 -0.13141953937E+02 -0.16721318637E+02  0.16028289854E+03  0.16168772685E+03  0.00000000000E+00 0.  1.
         -2    1    1    2    0  502  0.13141953937E+02  0.16721318637E+02  0.57868790814E+02  0.61653145909E+02  0.00000000000E+00 0. -1.
<mgrwt>
<rscale>  2 0.21267662E+02</rscale>
<asrwt>0</asrwt>
<pdfrwt beam="1">  1       21 0.33960952E-01 0.21267662E+02</pdfrwt>
<pdfrwt beam="2">  1       21 0.39916813E-03 0.21267662E+02</pdfrwt>
<totfact> 0.91228015E+07</totfact>
</mgrwt>
</event>
<event>
 4    1  0.7424968E+004  0.2304451E+02  0.7546771E-02  0.1690790E+00
         21   -1    0    0  503  502  0.00000000000E+00  0.00000000000E+00  0.33687192104E+02  0.33687192104E+02  0.00000000000E+00 0. -1.
         21   -1    0    0  501  503 -0.00000000000E+00 -0.00000000000E+00 -0.17871937980E+02  0.17871937980E+02  0.00000000000E+00 0. -1.
          2    1    1    2  501    0  0.21255510114E+02  0.89024026170E+01 -0.94566213027E+00  0.23063905988E+02  0.00000000000E+00 0.  1.
         -2    1    1    2    0  502 -0.21255510114E+02 -0.89024026170E+01  0.16760916254E+02  0.28495224095E+02  0.00000000000E+00 0. -1.
<mgrwt>
<rscale>  2 0.23044511E+02</rscale>
<asrwt>0</asrwt>
<pdfrwt beam="1">  1       21 0.51826449E-02 0.23044511E+02</pdfrwt>
<pdfrwt beam="2">  1       21 0.27495289E-02 0.23044511E+02</pdfrwt>
<totfact> 0.12403356E+08</totfact>
</mgrwt>
</event>
<event>
 4    1  0.7424968E+004  0.2550496E+02  0.7546771E-02  0.1653853E+00
         21   -1    0    0  503  502  0.00000000000E+00  0.00000000000E+00  0.21490845494E+03  0.21490845494E+03  0.00000000000E+00 0. -1.
         21   -1    0    0  501  503 -0.00000000000E+00 -0.00000000000E+00 -0.31536998104E+01  0.31536998104E+01  0.00000000000E+00 0. -1.
          2    1    1    2  501    0  0.10638652770E+02  0.23180209872E+02  0.12774119746E+03  0.13026249111E+03  0.00000000000E+00 0. -1.
         -2    1    1    2    0  502 -0.10638652770E+02 -0.23180209872E+02  0.84013557667E+02  0.87799663635E+02  0.00000000000E+00 0.  1.
<mgrwt>
<rscale>  2 0.25504962E+02</rscale>
<asrwt>0</asrwt>
<pdfrwt beam="1">  1       21 0.33062828E-01 0.25504962E+02</pdfrwt>
<pdfrwt beam="2">  1       21 0.48518476E-03 0.25504962E+02</pdfrwt>
<totfact> 0.75376201E+07</totfact>
</mgrwt>
</event>
<event>
 4    1  0.7424968E+004  0.2271282E+02  0.7546771E-02  0.1696208E+00
         21   -1    0    0  501  502  0.00000000000E+00  0.00000000000E+00  0.43830680122E+01  0.43830680122E+01  0.00000000000E+00 0. -1.
         21   -1    0    0  502  503 -0.00000000000E+00 -0.00000000000E+00 -0.13826734595E+03  0.13826734595E+03  0.00000000000E+00 0. -1.
          2    1    1    2  501    0  0.13452416387E+02  0.18300400346E+02 -0.39431013880E+02  0.45504692231E+02  0.00000000000E+00 0.  1.
         -2    1    1    2    0  503 -0.13452416387E+02 -0.18300400346E+02 -0.94453264059E+02  0.97145721733E+02  0.00000000000E+00 0. -1.
<mgrwt>
<rscale>  2 0.22712819E+02</rscale>
<asrwt>0</asrwt>
<pdfrwt beam="1">  1       21 0.67431830E-03 0.22712819E+02</pdfrwt>
<pdfrwt beam="2">  1       21 0.21271895E-01 0.22712819E+02</pdfrwt>
<totfact> 0.99275931E+07</totfact>
</mgrwt>
</event>
<event>
 4    1  0.7424968E+004  0.2532065E+02  0.7546771E-02  0.1656439E+00
         21   -1    0    0  503  502  0.00000000000E+00  0.00000000000E+00  0.17773494504E+02  0.17773494504E+02  0.00000000000E+00 0.  1.
         21   -1    0    0  501  503 -0.00000000000E+00 -0.00000000000E+00 -0.38687200405E+02  0.38687200405E+02  0.00000000000E+00 0.  1.
          4    1    1    2  501    0  0.16338614562E+02 -0.19343857465E+02 -0.31178011128E+01  0.25511876278E+02  0.00000000000E+00 0. -1.
         -4    1    1    2    0  502 -0.16338614562E+02  0.19343857465E+02 -0.17795904789E+02  0.30948818631E+02  0.00000000000E+00 0.  1.
<mgrwt>
<rscale>  2 0.25320647E+02</rscale>
<asrwt>0</asrwt>
<pdfrwt beam="1">  1       21 0.27343838E-02 0.25320647E+02</pdfrwt>
<pdfrwt beam="2">  1       21 0.59518770E-02 0.25320647E+02</pdfrwt>
<totfact> 0.10292275E+08</totfact>
</mgrwt>
</event>
<event>
 4    1  0.7424968E+004  0.2884098E+02  0.7546771E-02  0.1611265E+00
         21   -1    0    0  503  502  0.00000000000E+00  0.00000000000E+00  0.12642259793E+02  0.12642259793E+02  0.00000000000E+00 0. -1.
         21   -1    0    0  501  503 -0.00000000000E+00 -0.00000000000E+00 -0.10391004478E+03  0.10391004478E+03  0.00000000000E+00 0. -1.
          3    1    1    2  501    0 -0.26480394816E+02  0.11427630763E+02 -0.80928492196E+02  0.85914043693E+02  0.00000000000E+00 0. -1.
         -3    1    1    2    0  502  0.26480394816E+02 -0.11427630763E+02 -0.10339292793E+02  0.30638260883E+02  0.00000000000E+00 0.  1.
<mgrwt>
<rscale>  2 0.28840979E+02</rscale>
<asrwt>0</asrwt>
<pdfrwt beam="1">  1       21 0.19449631E-02 0.28840979E+02</pdfrwt>
<pdfrwt beam="2">  1       21 0.15986160E-01 0.28840979E+02</pdfrwt>
<totfact> 0.34782210E+07</totfact>
</mgrwt>
</event>
<event>
 4    1  0.7424968E+004  0.3811550E+02  0.7546771E-02  0.1522556E+00
         21   -1    0    0  503  502  0.00000000000E+00  0.00000000000E+00  0.10997746501E+01  0.10997746501E+01  0.00000000000E+00 0.  1.
         21   -1    0    0  501  503 -0.00000000000E+00 -0.00000000000E+00 -0.13212215596E+04  0.13212215596E+04  0.00000000000E+00 0.  1.
          1    1    1    2  501    0  0.37648774344E+02  0.59465348936E+01 -0.66881081020E+03  0.66989603023E+03  0.00000000000E+00 0. -1.
         -1    1    1    2    0  502 -0.37648774344E+02 -0.59465348936E+01 -0.65131097475E+03  0.65242530401E+03  0.00000000000E+00 0.  1.
<mgrwt>
<rscale>  2 0.38115502E+02</rscale>
<asrwt>0</asrwt>
<pdfrwt beam="1">  1       21 0.16919543E-03 0.38115502E+02</pdfrwt>
<pdfrwt beam="2">  1       21 0.20326566E+00 0.38115502E+02</pdfrwt>
<totfact> 0.73177886E+06</totfact>
</mgrwt>
</event>
<event>
 4    1  0.7424968E+004  0.2849462E+02  0.7546771E-02  0.1615351E+00
         21   -1    0    0  501  502  0.00000000000E+00  0.00000000000E+00  0.32951270165E+01  0.32951270165E+01  0.00000000000E+00 0. -1.
         21   -1    0    0  502  503 -0.00000000000E+00 -0.00000000000E+00 -0.39212462970E+03  0.39212462970E+03  0.00000000000E+00 0. -1.
          3    1    1    2  501    0  0.33606354002E+01 -0.28295752066E+02 -0.73891215803E+02  0.79195045477E+02  0.00000000000E+00 0.  1.
         -3    1    1    2    0  503 -0.33606354002E+01  0.28295752066E+02 -0.31493828688E+03  0.31622471124E+03  0.00000000000E+00 0. -1.
<mgrwt>
<rscale>  2 0.28494622E+02</rscale>
<asrwt>0</asrwt>
<pdfrwt beam="1">  1       21 0.50694238E-03 0.28494622E+02</pdfrwt>
<pdfrwt beam="2">  1       21 0.60326894E-01 0.28494622E+02</pdfrwt>
<totfact> 0.22676214E+07</totfact>
</mgrwt>
</event>
<event>
 4    1  0.7424968E+004  0.2661415E+02  0.7546771E-02  0.1638844E+00
         21   -1    0    0  503  502  0.00000000000E+00  0.00000000000E+00  0.11002428791E+02  0.11002428791E+02  0.00000000000E+00 0. -1.
         21   -1    0    0  501  503 -0.00000000000E+00 -0.00000000000E+00 -0.67295164633E+02  0.67295164633E+02  0.00000000000E+00 0. -1.
          5    1    1    2  501    0 -0.14327199910E+02  0.22428650847E+02 -0.36297462257E+02  0.45009096885E+02  0.00000000000E+00 0. -1.
         -5    1    1    2    0  502  0.14327199910E+02 -0.22428650847E+02 -0.19995273585E+02  0.33288496538E+02  0.00000000000E+00 0.  1.
<mgrwt>
<rscale>  2 0.26614151E+02</rscale>
<asrwt>0</asrwt>
<pdfrwt beam="1">  1       21 0.16926813E-02 0.26614151E+02</pdfrwt>
<pdfrwt beam="2">  1       21 0.10353102E-01 0.26614151E+02</pdfrwt>
<totfact> 0.88324501E+07</totfact>
</mgrwt>
</event>
<event>
 4    1  0.7424968E+004  0.2047850E+02  0.7546771E-02  0.1735976E+00
         21   -1    0    0  503  502  0.00000000000E+00  0.00000000000E+00  0.49158980463E+01  0.49158980463E+01  0.00000000000E+00 0. -1.
         21   -1    0    0  501  503 -0.00000000000E+00 -0.00000000000E+00 -0.12236778213E+03  0.12236778213E+03  0.00000000000E+00 0. -1.
          4    1    1    2  501    0  0.18091400031E+02 -0.95953292539E+01 -0.93749175782E+02  0.95959767916E+02  0.00000000000E+00 0.  1.
         -4    1    1    2    0  502 -0.18091400031E+02  0.95953292539E+01 -0.23702708306E+02  0.31323912265E+02  0.00000000000E+00 0. -1.
<mgrwt>
<rscale>  2 0.20478503E+02</rscale>
<asrwt>0</asrwt>
<pdfrwt beam="1">  1       21 0.75629205E-03 0.20478503E+02</pdfrwt>
<pdfrwt beam="2">  1       21 0.18825812E-01 0.20478503E+02</pdfrwt>
<totfact> 0.10058804E+08</totfact>
</mgrwt>
</event>
<event>
 4    1  0.7424968E+004  0.2487264E+02  0.7546771E-02  0.1662838E+00
         21   -1    0    0  503  502  0.00000000000E+00  0.00000000000E+00  0.48155533993E+02  0.48155533993E+02  0.00000000000E+00 0.  1.
         21   -1    0    0  501  503 -0.00000000000E+00 -0.00000000000E+00 -0.12890143109E+02  0.12890143109E+02  0.00000000000E+00 0.  1.
          1    1    1    2  501    0  0.24783611191E+02  0.21025674310E+01  0.19401073170E+02  0.31544410180E+02  0.00000000000E+00 0. -1.
         -1    1    1    2    0  502 -0.24783611191E+02 -0.21025674310E+01  0.15864317714E+02  0.29501266922E+02  0.00000000000E+00 0.  1.
<mgrwt>
<rscale>  2 0.24872639E+02</rscale>
<asrwt>0</asrwt>
<pdfrwt beam="1">  1       21 0.74085436E-02 0.24872639E+02</pdfrwt>
<pdfrwt beam="2">  1       21 0.19830990E-02 0.24872639E+02</pdfrwt>
<totfact> 0.11810211E+08</totfact>
</mgrwt>
</event>
<event>
 4    1  0.7424968E+004  0.2370715E+02  0.7546771E-02  0.1680297E+00
         21   -1    0    0  503  502  0.00000000000E+00  0.00000000000E+00  0.12059959925E+03  0.12059959925E+03  0.00000000000E+00 0.  1.
         21   -1    0    0  501  503 -0.00000000000E+00 -0.00000000000E+00 -0.47886381879E+01  0.47886381879E+01  0.00000000000E+00 0.  1.
          5    1    1    2  501    0 -0.42594540383E+01  0.23321364628E+02  0.68169493633E+02  0.72174156448E+02  0.00000000000E+00 0. -1.
         -5    1    1    2    0  502  0.42594540383E+01 -0.23321364628E+02  0.47641467431E+02  0.53214080992E+02  0.00000000000E+00 0.  1.
<mgrwt>
<rscale>  2 0.23707151E+02</rscale>
<asrwt>0</asrwt>
<pdfrwt beam="1">  1       21 0.18553782E-01 0.23707151E+02</pdfrwt>
<pdfrwt beam="2">  1       21 0.73671365E-03 0.23707151E+02</pdfrwt>
<totfact> 0.11178763E+08</totfact>
</mgrwt>
</event>
<event>
 4    1  0.7424968E+004  0.2062410E+02  0.7546771E-02  0.1733195E+00
         21   -1    0    0  501  502  0.00000000000E+00  0.00000000000E+00  0.27257051455E+02  0.27257051455E+02  0.00000000000E+00 0. -1.
         21   -1    0    0  502  503 -0.00000000000E+00 -0.00000000000E+00 -0.18506165312E+02  0.18506165312E+02  0.00000000000E+00 0. -1.
          3    1    1    2  501    0 -0.25571833071E+01 -0.20464951783E+02 -0.46838630045E+01  0.21149279198E+02  0.00000000000E+00 0. -1.
         -3    1    1    2    0  503  0.25571833071E+01  0.20464951783E+02  0.13434749148E+02  0.24613937569E+02  0.00000000000E+00 0.  1.
<mgrwt>
<rscale>  2 0.20624098E+02</rscale>
<asrwt>0</asrwt>
<pdfrwt beam="1">  1       21 0.41933925E-02 0.20624098E+02</pdfrwt>
<pdfrwt beam="2">  1       21 0.28471024E-02 0.20624098E+02</pdfrwt>
<totfact> 0.15886224E+08</totfact>
</mgrwt>
</event>
<event>
 4    1  0.7424968E+004  0.3418564E+02  0.7546771E-02  0.1555954E+00
         21   -1    0    0  503  502  0.00000000000E+00  0.00000000000E+00  0.13109249750E+04  0.13109249750E+04  0.00000000000E+00 0. -1.
         21   -1    0    0  501  503 -0.00000000000E+00 -0.00000000000E+00 -0.11830949408E+01  0.11830949408E+01  0.00000000000E+00 0. -1.
          4    1    1    2  501    0 -0.11359293585E+02  0.32243202771E+02  0.98058608120E+03  0.98118179779E+03  0.00000000000E+00 0. -1.
         -4    1    1    2    0  502  0.11359293585E+02 -0.32243202771E+02  0.32915579890E+03  0.33092627219E+03  0.00000000000E+00 0.  1.
<mgrwt>
<rscale>  2 0.34185636E+02</rscale>
<asrwt>0</asrwt>
<pdfrwt beam="1">  1       21 0.20167960E+00 0.34185636E+02</pdfrwt>
<pdfrwt beam="2">  1       21 0.18201565E-03 0.34185636E+02</pdfrwt>
<totfact> 0.66704992E+06</totfact>
</mgrwt>
</event>
<event>
 4    1  0.7424968E+004  0.2457734E+02  0.7546771E-02  0.1667148E+00
         21   -1    0    0  503  502  0.00000000000E+00  0.00000000000E+00  0.31056019432E+01  0.31056019432E+01  0.00000000000E+00 0.  1.
         21   -1    0    0  501  503 -0.00000000000E+00 -0.00000000000E+00 -0.74907442740E+03  0.74907442740E+03  0.00000000000E+00 0.  1.
          5    1    1    2  501    0  0.55132765722E+01 -0.23950981686E+02 -0.49384452223E+02  0.55162214093E+02  0.00000000000E+00 0. -1.
         -5    1    1    2    0  502 -0.55132765722E+01  0.23950981686E+02 -0.69658437323E+03  0.69701781525E+03  0.00000000000E+00 0.  1.
<mgrwt>
<rscale>  2 0.24577342E+02</rscale>
<asrwt>0</asrwt>
<pdfrwt beam="1">  1       21 0.47778526E-03 0.24577342E+02</pdfrwt>
<pdfrwt beam="2">  1       21 0.11524214E+00 0.24577342E+02</pdfrwt>
<totfact> 0.60909819E+06</totfact>
</mgrwt>
</event>
<event>
 4    1  0.7424968E+004  0.3132962E+02  0.7546771E-02  0.1583840E+00
         21   -1    0    0  503  502  0.00000000000E+00  0.00000000000E+00  0.11139054510E+01  0.11139054510E+01  0.00000000000E+00 0. -1.
         21   -1    0    0  501  503 -0.00000000000E+00 -0.00000000000E+00 -0.10825144854E+04  0.10825144854E+04  0.00000000000E+00 0. -1.
          5    1    1    2  501    0  0.30835999997E+02 -0.55395071706E+01 -0.77436793379E+03  0.77500144640E+03  0.00000000000E+00 0.  1.
         -5    1    1    2    0  502 -0.30835999997E+02  0.55395071706E+01 -0.30703264616E+03  0.30862694445E+03  0.00000000000E+00 0. -1.
<mgrwt>
<rscale>  2 0.31329619E+02</rscale>
<asrwt>0</asrwt>
<pdfrwt beam="1">  1       21 0.17137082E-03 0.31329619E+02</pdfrwt>
<pdfrwt beam="2">  1       21 0.16653996E+00 0.31329619E+02</pdfrwt>
<totfact> 0.11820051E+07</totfact>
</mgrwt>
</event>
<event>
 4    1  0.7424968E+004  0.2159202E+02  0.7546771E-02  0.1715405E+00
         21   -1    0    0  503  502  0.00000000000E+00  0.00000000000E+00  0.21940511640E+01  0.21940511640E+01  0.00000000000E+00 0. -1.
         21   -1    0    0  501  503 -0.00000000000E+00 -0.00000000000E+00 -0.21397055147E+03  0.21397055147E+03  0.00000000000E+00 0. -1.
          1    1    1    2  501    0  0.16574648476E+02  0.13838213407E+02 -0.96899284244E+02  0.99275809789E+02  0.00000000000E+00 0. -1.
         -1    1    1    2    0  502 -0.16574648476E+02 -0.13838213407E+02 -0.11487721606E+03  0.11688879285E+03  0.00000000000E+00 0.  1.
<mgrwt>
<rscale>  2 0.21592015E+02</rscale>
<asrwt>0</asrwt>
<pdfrwt beam="1">  1       21 0.33754648E-03 0.21592015E+02</pdfrwt>
<pdfrwt beam="2">  1       21 0.32918532E-01 0.21592015E+02</pdfrwt>
<totfact> 0.12392362E+08</totfact>
</mgrwt>
</event>
<event>
 4    1  0.7424968E+004  0.4473752E+02  0.7546771E-02  0.1475987E+00
         21   -1    0    0  501  502  0.00000000000E+00  0.00000000000E+00  0.22163445720E+03  0.22163445720E+03  0.00000000000E+00 0.  1.
         21   -1    0    0  502  503 -0.00000000000E+00 -0.00000000000E+00 -0.90502206329E+01  0.90502206329E+01  0.00000000000E+00 0.  1.
          4    1    1    2  501    0  0.10507102950E+02 -0.43486166337E+02  0.11169111638E+03  0.12031771005E+03  0.00000000000E+00 0. -1.
         -4    1    1    2    0  503 -0.10507102950E+02  0.43486166337E+02  0.10089312019E+03  0.11036696778E+03  0.00000000000E+00 0.  1.
<mgrwt>
<rscale>  2 0.44737522E+02</rscale>
<asrwt>0</asrwt>
<pdfrwt beam="1">  1       21 0.34097605E-01 0.44737522E+02</pdfrwt>
<pdfrwt beam="2">  1       21 0.13923418E-02 0.44737522E+02</pdfrwt>
<totfact> 0.16021311E+07</totfact>
</mgrwt>
</event>
<event>
 4    1  0.7424968E+004  0.2087309E+02  0.7546771E-02  0.1728503E+00
         21   -1    0    0  503  502  0.00000000000E+00  0.00000000000E+00  0.72160566889E+02  0.72160566889E+02  0.00000000000E+00 0.  1.
         21   -1    0    0  501  503 -0.00000000000E+00 -0.00000000000E+00 -0.60390613059E+01  0.60390613059E+01  0.00000000000E+00 0.  1.
          2    1    1    2  501    0 -0.17558260341E+02  0.11286869534E+02  0.32479947007E+02  0.38608715178E+02  0.00000000000E+00 0.  1.
         -2    1    1    2    0  502  0.17558260341E+02 -0.11286869534E+02  0.33641558576E+02  0.39590913017E+02  0.00000000000E+00 0. -1.
<mgrwt>
<rscale>  2 0.20873091E+02</rscale>
<asrwt>0</asrwt>
<pdfrwt beam="1">  1       21 0.11101625E-01 0.20873091E+02</pdfrwt>
<pdfrwt beam="2">  1       21 0.92908641E-03 0.20873091E+02</pdfrwt>
<totfact> 0.18186871E+08</totfact>
</mgrwt>
</event>
<event>
 4    1  0.7424968E+004  0.2550977E+02  0.7546771E-02  0.1653786E+00
         21   -1    0    0  503  502  0.00000000000E+00  0.00000000000E+00  0.42903165516E+02  0.42903165516E+02  0.00000000000E+00 0.  1.
         21   -1    0    0  501  503 -0.00000000000E+00 -0.00000000000E+00 -0.23703771917E+02  0.23703771917E+02  0.00000000000E+00 0.  1.
          2    1    1    2  501    0 -0.13915252331E+02 -0.21380231730E+02  0.29584785901E+02  0.39064153813E+02  0.00000000000E+00 0.  1.
         -2    1    1    2    0  502  0.13915252331E+02  0.21380231730E+02 -0.10385392303E+02  0.27542783620E+02  0.00000000000E+00 0. -1.
<mgrwt>
<rscale>  2 0.25509774E+02</rscale>
<asrwt>0</asrwt>
<pdfrwt beam="1">  1       21 0.66004870E-02 0.25509774E+02</pdfrwt>
<pdfrwt beam="2">  1       21 0.36467341E-02 0.25509774E+02</pdfrwt>
<totfact> 0.55570867E+07</totfact>
</mgrwt>
</event>
<event>
 4    1  0.7424968E+004  0.2234887E+02  0.7546771E-02  0.1702287E+00
         21   -1    0    0  503  502  0.00000000000E+00  0.00000000000E+00  0.94046761856E+02  0.94046761856E+02  0.00000000000E+00 0.  1.
         21   -1    0    0  501  503 -0.00000000000E+00 -0.00000000000E+00 -0.54884787027E+01  0.54884787027E+01  0.00000000000E+00 0.  1.
          5    1    1    2  501    0  0.15930626907E+02 -0.15674409685E+02  0.53231320179E+02  0.57732533641E+02  0.00000000000E+00 0. -1.
         -5    1    1    2    0  502 -0.15930626907E+02  0.15674409685E+02  0.35326962975E+02  0.41802706918E+02  0.00000000000E+00 0.  1.
<mgrwt>
<rscale>  2 0.22348870E+02</rscale>
<asrwt>0</asrwt>
<pdfrwt beam="1">  1       21 0.14468731E-01 0.22348870E+02</pdfrwt>
<pdfrwt beam="2">  1       21 0.84438141E-03 0.22348870E+02</pdfrwt>
<totfact> 0.13735952E+08</totfact>
</mgrwt>
</event>
<event>
 4    1  0.7424968E+004  0.2308863E+02  0.7546771E-02  0.1690078E+00
         21   -1    0    0  501  502  0.00000000000E+00  0.00000000000E+00  0.18754618485E+03  0.18754618485E+03  0.00000000000E+00 0.  1.
         21   -1    0    0  502  503 -0.00000000000E+00 -0.00000000000E+00 -0.31076352357E+01  0.31076352357E+01  0.00000000000E+00 0.  1.
          2    1    1    2  501    0 -0.22451775731E+02  0.53853943161E+01  0.12006773165E+03  0.12226751363E+03  0.00000000000E+00 0.  1.
         -2    1    1    2    0  503  0.22451775731E+02 -0.53853943161E+01  0.64370817962E+02  0.68386306455E+02  0.00000000000E+00 0. -1.
<mgrwt>
<rscale>  2 0.23088627E+02</rscale>
<asrwt>0</asrwt>
<pdfrwt beam="1">  1       21 0.28853250E-01 0.23088627E+02</pdfrwt>
<pdfrwt beam="2">  1       21 0.47809787E-03 0.23088627E+02</pdfrwt>
<totfact> 0.96355838E+07</totfact>
</mgrwt>
</event>
<event>
 4    1  0.7424968E+004  0.3631026E+02  0.7546771E-02  0.1537264E+00
         21   -1    0    0  503  502  0.00000000000E+00  0.00000000000E+00  0.48228178507E+02  0.48228178507E+02  0.00000000000E+00 0.  1.
         21   -1    0    0  501  503 -0.00000000000E+00 -0.00000000000E+00 -0.30814764273E+02  0.30814764273E+02  0.00000000000E+00 0.  1.
          1    1    1    2  501    0 -0.15432045897E+02 -0.32867716553E+02  0.21982987362E+02  0.42446278580E+02  0.00000000000E+00 0. -1.
         -1    1    1    2    0  502  0.15432045897E+02  0.32867716553E+02 -0.45695731276E+01  0.36596664200E+02  0.00000000000E+00 0.  1.
<mgrwt>
<rscale>  2 0.36310258E+02</rscale>
<asrwt>0</asrwt>
<pdfrwt beam="1">  1       21 0.74197198E-02 0.36310258E+02</pdfrwt>
<pdfrwt beam="2">  1       21 0.47407329E-02 0.36310258E+02</pdfrwt>
<totfact> 0.32585878E+07</totfact>
</mgrwt>
</event>
<event>
 4    1  0.7424968E+004  0.2355295E+02  0.7546771E-02  0.1682701E+00
         21   -1    0    0  501  502  0.00000000000E+00  0.00000000000E+00  0.21885051391E+03  0.21885051391E+03  0.00000000000E+00 0. -1.
         21   -1    0    0  502  503 -0.00000000000E+00 -0.00000000000E+00 -0.34172161416E+01  0.34172161416E+01  0.00000000000E+00 0. -1.
          1    1    1    2  501    0 -0.20397094902E+02  0.11777089977E+02  0.16419057593E+03  0.16587129515E+03  0.00000000000E+00 0.  1.
         -1    1    1    2    0  503  0.20397094902E+02 -0.11777089977E+02  0.51242721835E+02  0.56396434904E+02  0.00000000000E+00 0. -1.
<mgrwt>
<rscale>  2 0.23552947E+02</rscale>
<asrwt>0</asrwt>
<pdfrwt beam="1">  1       21 0.33669299E-01 0.23552947E+02</pdfrwt>
<pdfrwt beam="2">  1       21 0.52572573E-03 0.23552947E+02</pdfrwt>
<totfact> 0.63489205E+07</totfact>
</mgrwt>
</event>
<event>
 4    1  0.7424968E+004  0.2680271E+02  0.7546771E-02  0.1636382E+00
         21   -1    0    0  501  502  0.00000000000E+00  0.00000000000E+00  0.18894399372E+03  0.18894399372E+03  0.00000000000E+00 0. -1.
         21   -1    0    0  502  503 -0.00000000000E+00 -0.00000000000E+00 -0.38895825303E+01  0.38895825303E+01  0.00000000000E+00 0. -1.
          4    1    1    2  501    0 -0.11621986794E+02 -0.24151910320E+02  0.78068028981E+02  0.82540914086E+02  0.00000000000E+00 0.  1.
         -4    1    1    2    0  503  0.11621986794E+02  0.24151910320E+02  0.10698638220E+03  0.11029266216E+03  0.00000000000E+00 0. -1.
<mgrwt>
<rscale>  2 0.26802712E+02</rscale>
<asrwt>0</asrwt>
<pdfrwt beam="1">  1       21 0.29068300E-01 0.26802712E+02</pdfrwt>
<pdfrwt beam="2">  1       21 0.59839746E-03 0.26802712E+02</pdfrwt>
<totfact> 0.70768311E+07</totfact>
</mgrwt>
</event>
<event>
 4    1  0.7424968E+004  0.2159205E+02  0.7546771E-02  0.1715404E+00
         21   -1    0    0  501  502  0.00000000000E+00  0.00000000000E+00  0.10061859826E+02  0.10061859826E+02  0.00000000000E+00 0.  1.
         21   -1    0    0  502  503 -0.00000000000E+00 -0.00000000000E+00 -0.49278060302E+02  0.49278060302E+02  0.00000000000E+00 0.  1.
          4    1    1    2  501    0  0.43473587809E+01 -0.21149874436E+02 -0.26858909799E+02  0.34461830372E+02  0.00000000000E+00 0. -1.
         -4    1    1    2    0  503 -0.43473587809E+01  0.21149874436E+02 -0.12357290678E+02  0.24878089756E+02  0.00000000000E+00 0.  1.
<mgrwt>
<rscale>  2 0.21592052E+02</rscale>
<asrwt>0</asrwt>
<pdfrwt beam="1">  1       21 0.15479785E-02 0.21592052E+02</pdfrwt>
<pdfrwt beam="2">  1       21 0.75812398E-02 0.21592052E+02</pdfrwt>
<totfact> 0.15928618E+08</totfact>
</mgrwt>
</event>
<event>
 4    1  0.7424968E+004  0.2375052E+02  0.7546771E-02  0.1679625E+00
         21   -1    0    0  501  502  0.00000000000E+00  0.00000000000E+00  0.71878355193E+02  0.71878355193E+02  0.00000000000E+00 0.  1.
         21   -1    0    0  502  503 -0.00000000000E+00 -0.00000000000E+00 -0.80792068707E+01  0.80792068707E+01  0.00000000000E+00 0.  1.
          3    1    1    2  501    0 -0.20875888958E+02 -0.11326273751E+02  0.38665541571E+02  0.45377431856E+02  0.00000000000E+00 0.  1.
         -3    1    1    2    0  503  0.20875888958E+02  0.11326273751E+02  0.25133606752E+02  0.34580130208E+02  0.00000000000E+00 0. -1.
<mgrwt>
<rscale>  2 0.23750520E+02</rscale>
<asrwt>0</asrwt>
<pdfrwt beam="1">  1       21 0.11058208E-01 0.23750520E+02</pdfrwt>
<pdfrwt beam="2">  1       21 0.12429550E-02 0.23750520E+02</pdfrwt>
<totfact> 0.12286627E+08</totfact>
</mgrwt>
</event>
<event>
 4    1  0.7424968E+004  0.2261065E+02  0.7546771E-02  0.1697900E+00
         21   -1    0    0  503  502  0.00000000000E+00  0.00000000000E+00  0.39906750354E+03  0.39906750354E+03  0.00000000000E+00 0.  1.
         21   -1    0    0  501  503 -0.00000000000E+00 -0.00000000000E+00 -0.15851395583E+01  0.15851395583E+01  0.00000000000E+00 0.  1.
          1    1    1    2  501    0 -0.19100993716E+02  0.12099321568E+02  0.28647684754E+03  0.28736775344E+03  0.00000000000E+00 0.  1.
         -1    1    1    2    0  502  0.19100993716E+02 -0.12099321568E+02  0.11100551644E+03  0.11328488965E+03  0.00000000000E+00 0. -1.
<mgrwt>
<rscale>  2 0.22610651E+02</rscale>
<asrwt>0</asrwt>
<pdfrwt beam="1">  1       21 0.61394920E-01 0.22610651E+02</pdfrwt>
<pdfrwt beam="2">  1       21 0.24386794E-03 0.22610651E+02</pdfrwt>
<totfact> 0.61036715E+07</totfact>
</mgrwt>
</event>
<event>
 4    1  0.7424968E+004  0.3094198E+02  0.7546771E-02  0.1587904E+00
         21   -1    0    0  501  502  0.00000000000E+00  0.00000000000E+00  0.14386371248E+03  0.14386371248E+03  0.00000000000E+00 0.  1.
         21   -1    0    0  502  503 -0.00000000000E+00 -0.00000000000E+00 -0.13450432992E+02  0.13450432992E+02  0.00000000000E+00 0.  1.
          3    1    1    2  501    0 -0.27507573440E+02 -0.14168254063E+02  0.12111538766E+03  0.12500537248E+03  0.00000000000E+00 0.  1.
         -3    1    1    2    0  503  0.27507573440E+02  0.14168254063E+02  0.92978918224E+01  0.32308772990E+02  0.00000000000E+00 0. -1.
<mgrwt>
<rscale>  2 0.30941978E+02</rscale>
<asrwt>0</asrwt>
<pdfrwt beam="1">  1       21 0.22132878E-01 0.30941978E+02</pdfrwt>
<pdfrwt beam="2">  1       21 0.20692975E-02 0.30941978E+02</pdfrwt>
<totfact> 0.18099013E+07</totfact>
</mgrwt>
</event>
<event>
 4    1  0.7424968E+004  0.2139233E+02  0.7546771E-02  0.1718978E+00
         21   -1    0    0  503  502  0.00000000000E+00  0.00000000000E+00  0.25850691388E+01  0.25850691388E+01  0.00000000000E+00 0. -1.
         21   -1    0    0  501  503 -0.00000000000E+00 -0.00000000000E+00 -0.18275955130E+03  0.18275955130E+03  0.00000000000E+00 0. -1.
          3    1    1    2  501    0  0.21546601812E+01 -0.21283544692E+02 -0.10649742942E+03  0.10862474077E+03  0.00000000000E+00 0.  1.
         -3    1    1    2    0  502 -0.21546601812E+01  0.21283544692E+02 -0.73677052745E+02  0.76719879668E+02  0.00000000000E+00 0. -1.
<mgrwt>
<rscale>  2 0.21392331E+02</rscale>
<asrwt>0</asrwt>
<pdfrwt beam="1">  1       21 0.39770295E-03 0.21392331E+02</pdfrwt>
<pdfrwt beam="2">  1       21 0.28116854E-01 0.21392331E+02</pdfrwt>
<totfact> 0.12953123E+08</totfact>
</mgrwt>
</event>
<event>
 4    1  0.7424968E+004  0.2117780E+02  0.7546771E-02  0.1722872E+00
         21   -1    0    0  501  502  0.00000000000E+00  0.00000000000E+00  0.33916988716E+03  0.33916988716E+03  0.00000000000E+00 0.  1.
         21   -1    0    0  502  503 -0.00000000000E+00 -0.00000000000E+00 -0.15332064704E+01  0.15332064704E+01  0.00000000000E+00 0.  1.
          2    1    1    2  501    0  0.74586254506E+01 -0.19820901076E+02  0.10564329487E+03  0.10774509252E+03  0.00000000000E+00 0.  1.
         -2    1    1    2    0  503 -0.74586254506E+01  0.19820901076E+02  0.23199338582E+03  0.23295800110E+03  0.00000000000E+00 0. -1.
<mgrwt>
<rscale>  2 0.21177800E+02</rscale>
<asrwt>0</asrwt>
<pdfrwt beam="1">  1       21 0.52179923E-01 0.21177800E+02</pdfrwt>
<pdfrwt beam="2">  1       21 0.23587819E-03 0.21177800E+02</pdfrwt>
<totfact> 0.86893745E+07</totfact>
</mgrwt>
</event>
<event>
 4    1  0.7424968E+004  0.4406521E+02  0.7546771E-02  0.1480263E+00
         21   -1    0    0  503  502  0.00000000000E+00  0.00000000000E+00  0.16283604742E+03  0.16283604742E+03  0.00000000000E+00 0.  1.
         21   -1    0    0  501  503 -0.00000000000E+00 -0.00000000000E+00 -0.12583845197E+02  0.12583845197E+02  0.00000000000E+00 0.  1.
          5    1    1    2  501    0 -0.10568510410E+02 -0.42779075192E+02  0.95202693940E+02  0.10490612766E+03  0.00000000000E+00 0. -1.
         -5    1    1    2    0  502  0.10568510410E+02  0.42779075192E+02  0.55049508283E+02  0.70513764959E+02  0.00000000000E+00 0.  1.
<mgrwt>
<rscale>  2 0.44065209E+02</rscale>
<asrwt>0</asrwt>
<pdfrwt beam="1">  1       21 0.25051698E-01 0.44065209E+02</pdfrwt>
<pdfrwt beam="2">  1       21 0.19359763E-02 0.44065209E+02</pdfrwt>
<totfact> 0.16981201E+07</totfact>
</mgrwt>
</event>
<event>
 4    1  0.7424968E+004  0.2124471E+02  0.7546771E-02  0.1721651E+00
         21   -1    0    0  501  502  0.00000000000E+00  0.00000000000E+00  0.46700110370E+03  0.46700110370E+03  0.00000000000E+00 0.  1.
         21   -1    0    0  502  503 -0.00000000000E+00 -0.00000000000E+00 -0.10288231244E+01  0.10288231244E+01  0.00000000000E+00 0.  1.
          2    1    1    2  501    0 -0.21158804675E+02 -0.19086177714E+01  0.17537087418E+03  0.17665299699E+03  0.00000000000E+00 0. -1.
         -2    1    1    2    0  503  0.21158804675E+02  0.19086177714E+01  0.29060140640E+03  0.29137692983E+03  0.00000000000E+00 0.  1.
<mgrwt>
<rscale>  2 0.21244713E+02</rscale>
<asrwt>0</asrwt>
<pdfrwt beam="1">  1       21 0.71846154E-01 0.21244713E+02</pdfrwt>
<pdfrwt beam="2">  1       21 0.15828085E-03 0.21244713E+02</pdfrwt>
<totfact> 0.81467133E+07</totfact>
</mgrwt>
</event>
<event>
 4    1  0.7424968E+004  0.3753157E+02  0.7546771E-02  0.1527204E+00
         21   -1    0    0  503  502  0.00000000000E+00  0.00000000000E+00  0.21202453148E+03  0.21202453148E+03  0.00000000000E+00 0. -1.
         21   -1    0    0  501  503 -0.00000000000E+00 -0.00000000000E+00 -0.67039877007E+01  0.67039877007E+01  0.00000000000E+00 0. -1.
          1    1    1    2  501    0  0.34777551801E+02 -0.14111709463E+02  0.11303495317E+03  0.11910297683E+03  0.00000000000E+00 0.  1.
         -1    1    1    2    0  502 -0.34777551801E+02  0.14111709463E+02  0.92285590611E+02  0.99625542345E+02  0.00000000000E+00 0. -1.
<mgrwt>
<rscale>  2 0.37531566E+02</rscale>
<asrwt>0</asrwt>
<pdfrwt beam="1">  1       21 0.32619153E-01 0.37531566E+02</pdfrwt>
<pdfrwt beam="2">  1       21 0.10313829E-02 0.37531566E+02</pdfrwt>
<totfact> 0.26914509E+07</totfact>
</mgrwt>
</event>
<event>
 4    1  0.7424968E+004  0.2407426E+02  0.7546771E-02  0.1674666E+00
         21   -1    0    0  501  502  0.00000000000E+00  0.00000000000E+00  0.12906481620E+01  0.12906481620E+01  0.00000000000E+00 0. -1.
         21   -1    0    0  502  503 -0.00000000000E+00 -0.00000000000E+00 -0.50644761122E+03  0.50644761122E+03  0.00000000000E+00 0. -1.
          4    1    1    2  501    0  0.14992369323E+02  0.18836107653E+02 -0.33804111163E+03  0.33889727535E+03  0.00000000000E+00 0. -1.
         -4    1    1    2    0  503 -0.14992369323E+02 -0.18836107653E+02 -0.16711585143E+03  0.16884098403E+03  0.00000000000E+00 0.  1.
<mgrwt>
<rscale>  2 0.24074262E+02</rscale>
<asrwt>0</asrwt>
<pdfrwt beam="1">  1       21 0.19856121E-03 0.24074262E+02</pdfrwt>
<pdfrwt beam="2">  1       21 0.77915036E-01 0.24074262E+02</pdfrwt>
<totfact> 0.51187872E+07</totfact>
</mgrwt>
</event>
<event>
 4    1  0.7424968E+004  0.2388646E+02  0.7546771E-02  0.1677531E+00
         21   -1    0    0  501  502  0.00000000000E+00  0.00000000000E+00  0.88216979079E+02  0.88216979079E+02  0.00000000000E+00 0.  1.
         21   -1    0    0  502  503 -0.00000000000E+00 -0.00000000000E+00 -0.66306126771E+01  0.66306126771E+01  0.00000000000E+00 0.  1.
          2    1    1    2  501    0  0.57584222288E+01  0.23181963093E+02  0.33360109172E+02  0.41029985661E+02  0.00000000000E+00 0. -1.
         -2    1    1    2    0  503 -0.57584222288E+01 -0.23181963093E+02  0.48226257230E+02  0.53817606095E+02  0.00000000000E+00 0.  1.
<mgrwt>
<rscale>  2 0.23886457E+02</rscale>
<asrwt>0</asrwt>
<pdfrwt beam="1">  1       21 0.13571842E-01 0.23886457E+02</pdfrwt>
<pdfrwt beam="2">  1       21 0.10200943E-02 0.23886457E+02</pdfrwt>
<totfact> 0.11755291E+08</totfact>
</mgrwt>
</event>
<event>
 4    1  0.7424968E+004  0.3345955E+02  0.7546771E-02  0.1562722E+00
         21   -1    0    0  501  502  0.00000000000E+00  0.00000000000E+00  0.16802853908E+01  0.16802853908E+01  0.00000000000E+00 0. -1.
         21   -1    0    0  502  503 -0.00000000000E+00 -0.00000000000E+00 -0.69163798914E+03  0.69163798914E+03  0.00000000000E+00 0. -1.
          4    1    1    2  501    0 -0.33216480435E+02  0.40257652228E+01 -0.27860201996E+03  0.28060403932E+03  0.00000000000E+00 0.  1.
         -4    1    1    2    0  503  0.33216480435E+02 -0.40257652228E+01 -0.41135568379E+03  0.41271423521E+03  0.00000000000E+00 0. -1.
<mgrwt>
<rscale>  2 0.33459548E+02</rscale>
<asrwt>0</asrwt>
<pdfrwt beam="1">  1       21 0.25850504E-03 0.33459548E+02</pdfrwt>
<pdfrwt beam="2">  1       21 0.10640601E+00 0.33459548E+02</pdfrwt>
<totfact> 0.18806477E+07</totfact>
</mgrwt>
</event>
<event>
 4    1  0.7424968E+004  0.2333394E+02  0.7546771E-02  0.1686153E+00
         21   -1    0    0  501  502  0.00000000000E+00  0.00000000000E+00  0.23025403864E+01  0.23025403864E+01  0.00000000000E+00 0. -1.
         21   -1    0    0  502  503 -0.00000000000E+00 -0.00000000000E+00 -0.23735981634E+03  0.23735981634E+03  0.00000000000E+00 0. -1.
          4    1    1    2  501    0  0.15023169659E+02  0.17854336312E+02 -0.11017598130E+03  0.11261980202E+03  0.00000000000E+00 0.  1.
         -4    1    1    2    0  503 -0.15023169659E+02 -0.17854336312E+02 -0.12488129465E+03  0.12704255470E+03  0.00000000000E+00 0. -1.
<mgrwt>
<rscale>  2 0.23333944E+02</rscale>
<asrwt>0</asrwt>
<pdfrwt beam="1">  1       21 0.35423701E-03 0.23333944E+02</pdfrwt>
<pdfrwt beam="2">  1       21 0.36516892E-01 0.23333944E+02</pdfrwt>
<totfact> 0.97371846E+07</totfact>
</mgrwt>
</event>
<event>
 4    1  0.7424968E+004  0.2855572E+02  0.7546771E-02  0.1614625E+00
         21   -1    0    0  501  502  0.00000000000E+00  0.00000000000E+00  0.33301600513E+01  0.33301600513E+01  0.00000000000E+00 0.  1.
         21   -1    0    0  502  503 -0.00000000000E+00 -0.00000000000E+00 -0.24799863632E+03  0.24799863632E+03  0.00000000000E+00 0.  1.
          5    1    1    2  501    0  0.28138786647E+02 -0.48618606869E+01 -0.13646719867E+03  0.13942282925E+03  0.00000000000E+00 0.  1.
         -5    1    1    2    0  503 -0.28138786647E+02  0.48618606869E+01 -0.10820127760E+03  0.11190596713E+03  0.00000000000E+00 0. -1.
<mgrwt>
<rscale>  2 0.28555718E+02</rscale>
<asrwt>0</asrwt>
<pdfrwt beam="1">  1       21 0.51233231E-03 0.28555718E+02</pdfrwt>
<pdfrwt beam="2">  1       21 0.38153636E-01 0.28555718E+02</pdfrwt>
<totfact> 0.54599440E+07</totfact>
</mgrwt>
</event>
<event>
 4    1  0.7424968E+004  0.2037024E+02  0.7546771E-02  0.1738064E+00
         21   -1    0    0  503  502  0.00000000000E+00  0.00000000000E+00  0.52736907659E+00  0.52736907659E+00  0.00000000000E+00 0.  1.
         21   -1    0    0  501  503 -0.00000000000E+00 -0.00000000000E+00 -0.94545804337E+03  0.94545804337E+03  0.00000000000E+00 0.  1.
          3    1    1    2  501    0  0.64931552686E+01  0.19307657262E+02 -0.66621073076E+03  0.66652208101E+03  0.00000000000E+00 0. -1.
         -3    1    1    2    0  502 -0.64931552686E+01 -0.19307657262E+02 -0.27871994354E+03  0.27946333144E+03  0.00000000000E+00 0.  1.
<mgrwt>
<rscale>  2 0.20370240E+02</rscale>
<asrwt>0</asrwt>
<pdfrwt beam="1">  1       21 0.81133613E-04 0.20370240E+02</pdfrwt>
<pdfrwt beam="2">  1       21 0.14545525E+00 0.20370240E+02</pdfrwt>
<totfact> 0.44595490E+07</totfact>
</mgrwt>
</event>
<event>
 4    1  0.7424968E+004  0.2142508E+02  0.7546771E-02  0.1718389E+00
         21   -1    0    0  501  502  0.00000000000E+00  0.00000000000E+00  0.18697138641E+01  0.18697138641E+01  0.00000000000E+00 0.  1.
         21   -1    0    0  502  503 -0.00000000000E+00 -0.00000000000E+00 -0.28220953546E+03  0.28220953546E+03  0.00000000000E+00 0.  1.
          2    1    1    2  501    0  0.20828281474E+02  0.50216115006E+01 -0.19139144279E+03  0.19258691094E+03  0.00000000000E+00 0.  1.
         -2    1    1    2    0  503 -0.20828281474E+02 -0.50216115006E+01 -0.88948378805E+02  0.91492338386E+02  0.00000000000E+00 0. -1.
<mgrwt>
<rscale>  2 0.21425076E+02</rscale>
<asrwt>0</asrwt>
<pdfrwt beam="1">  1       21 0.28764823E-03 0.21425076E+02</pdfrwt>
<pdfrwt beam="2">  1       21 0.43416860E-01 0.21425076E+02</pdfrwt>
<totfact> 0.93126652E+07</totfact>
</mgrwt>
</event>
<event>
 4    1  0.7424968E+004  0.2821921E+02  0.7546771E-02  0.1618650E+00
         21   -1    0    0  503  502  0.00000000000E+00  0.00000000000E+00  0.77211825071E+00  0.77211825071E+00  0.00000000000E+00 0.  1.
         21   -1    0    0  501  503 -0.00000000000E+00 -0.00000000000E+00 -0.11071709690E+04  0.11071709690E+04  0.00000000000E+00 0.  1.
          2    1    1    2  501    0 -0.98679303100E+01 -0.26437623598E+02 -0.69816851086E+03  0.69873857310E+03  0.00000000000E+00 0.  1.
         -2    1    1    2    0  502  0.98679303100E+01  0.26437623598E+02 -0.40823033991E+03  0.40920451417E+03  0.00000000000E+00 0. -1.
<mgrwt>
<rscale>  2 0.28219213E+02</rscale>
<asrwt>0</asrwt>
<pdfrwt beam="1">  1       21 0.11878755E-03 0.28219213E+02</pdfrwt>
<pdfrwt beam="2">  1       21 0.17033381E+00 0.28219213E+02</pdfrwt>
<totfact> 0.18741311E+07</totfact>
</mgrwt>
</event>
<event>
 4    1  0.7424968E+004  0.2099698E+02  0.7546771E-02  0.1726199E+00
         21   -1    0    0  503  502  0.00000000000E+00  0.00000000000E+00  0.28952007639E+01  0.28952007639E+01  0.00000000000E+00 0.  1.
         21   -1    0    0  501  503 -0.00000000000E+00 -0.00000000000E+00 -0.16092683421E+03  0.16092683421E+03  0.00000000000E+00 0.  1.
          4    1    1    2  501    0 -0.20678417398E+02  0.36436358003E+01 -0.98005918211E+02  0.10022990089E+03  0.00000000000E+00 0.  1.
         -4    1    1    2    0  502  0.20678417398E+02 -0.36436358003E+01 -0.60025715234E+02  0.63592134083E+02  0.00000000000E+00 0. -1.
<mgrwt>
<rscale>  2 0.20996977E+02</rscale>
<asrwt>0</asrwt>
<pdfrwt beam="1">  1       21 0.44541547E-03 0.20996977E+02</pdfrwt>
<pdfrwt beam="2">  1       21 0.24757976E-01 0.20996977E+02</pdfrwt>
<totfact> 0.13699075E+08</totfact>
</mgrwt>
</event>
<event>
 4    1  0.7424968E+004  0.2769800E+02  0.7546771E-02  0.1625023E+00
         21   -1    0    0  501  502  0.00000000000E+00  0.00000000000E+00  0.23707805051E+01  0.23707805051E+01  0.00000000000E+00 0.  1.
         21   -1    0    0  502  503 -0.00000000000E+00 -0.00000000000E+00 -0.39247016973E+03  0.39247016973E+03  0.00000000000E+00 0.  1.
          3    1    1    2  501    0  0.10259890041E+02  0.25727688819E+02 -0.11234856671E+03  0.11571248747E+03  0.00000000000E+00 0. -1.
         -3    1    1    2    0  503 -0.10259890041E+02 -0.25727688819E+02 -0.27775082252E+03  0.27912846277E+03  0.00000000000E+00 0.  1.
<mgrwt>
<rscale>  2 0.27698002E+02</rscale>
<asrwt>0</asrwt>
<pdfrwt beam="1">  1       21 0.36473548E-03 0.27698002E+02</pdfrwt>
<pdfrwt beam="2">  1       21 0.60380024E-01 0.27698002E+02</pdfrwt>
<totfact> 0.36639298E+07</totfact>
</mgrwt>
</event>
<event>
 4    1  0.7424968E+004  0.2638811E+02  0.7546771E-02  0.1641829E+00
         21   -1    0    0  501  502  0.00000000000E+00  0.00000000000E+00  0.27870778482E+01  0.27870778482E+01  0.00000000000E+00 0. -1.
         21   -1    0    0  502  503 -0.00000000000E+00 -0.00000000000E+00 -0.40210364030E+03  0.40210364030E+03  0.00000000000E+00 0. -1.
          4    1    1    2  501    0 -0.66886619683E+01  0.25526339642E+02 -0.32423373655E+03  0.32530577636E+03  0.00000000000E+00 0. -1.
         -4    1    1    2    0  503  0.66886619683E+01 -0.25526339642E+02 -0.75082825905E+02  0.79584941794E+02  0.00000000000E+00 0.  1.
<mgrwt>
<rscale>  2 0.26388107E+02</rscale>
<asrwt>0</asrwt>
<pdfrwt beam="1">  1       21 0.42878095E-03 0.26388107E+02</pdfrwt>
<pdfrwt beam="2">  1       21 0.61862136E-01 0.26388107E+02</pdfrwt>
<totfact> 0.27226201E+07</totfact>
</mgrwt>
</event>
<event>
 4    1  0.7424968E+004  0.2429044E+02  0.7546771E-02  0.1671408E+00
         21   -1    0    0  503  502  0.00000000000E+00  0.00000000000E+00  0.73675863217E+02  0.73675863217E+02  0.00000000000E+00 0. -1.
         21   -1    0    0  501  503 -0.00000000000E+00 -0.00000000000E+00 -0.95923764973E+01  0.95923764973E+01  0.00000000000E+00 0. -1.
          1    1    1    2  501    0 -0.31914754065E+01 -0.24079868853E+02  0.15123277144E+02  0.28613617577E+02  0.00000000000E+00 0. -1.
         -1    1    1    2    0  502  0.31914754065E+01  0.24079868853E+02  0.48960209576E+02  0.54654622137E+02  0.00000000000E+00 0.  1.
<mgrwt>
<rscale>  2 0.24290443E+02</rscale>
<asrwt>0</asrwt>
<pdfrwt beam="1">  1       21 0.11334748E-01 0.24290443E+02</pdfrwt>
<pdfrwt beam="2">  1       21 0.14757503E-02 0.24290443E+02</pdfrwt>
<totfact> 0.91440856E+07</totfact>
</mgrwt>
</event>
<event>
 4    1  0.7424968E+004  0.2588498E+02  0.7546771E-02  0.1648607E+00
         21   -1    0    0  503  502  0.00000000000E+00  0.00000000000E+00  0.29743926491E+03  0.29743926491E+03  0.00000000000E+00 0. -1.
         21   -1    0    0  501  503 -0.00000000000E+00 -0.00000000000E+00 -0.27058465813E+01  0.27058465813E+01  0.00000000000E+00 0. -1.
          2    1    1    2  501    0 -0.12298967217E+02 -0.22776465311E+02  0.20878310083E+03  0.21038159415E+03  0.00000000000E+00 0. -1.
         -2    1    1    2    0  502  0.12298967217E+02  0.22776465311E+02  0.85950317504E+02  0.89763517343E+02  0.00000000000E+00 0.  1.
<mgrwt>
<rscale>  2 0.25884976E+02</rscale>
<asrwt>0</asrwt>
<pdfrwt beam="1">  1       21 0.45759861E-01 0.25884976E+02</pdfrwt>
<pdfrwt beam="2">  1       21 0.41628433E-03 0.25884976E+02</pdfrwt>
<totfact> 0.51356079E+07</totfact>
</mgrwt>
</event>
<event>
 4    1  0.7424968E+004  0.2461170E+02  0.7546771E-02  0.1666643E+00
         21   -1    0    0  503  502  0.00000000000E+00  0.00000000000E+00  0.66587084184E+03  0.66587084184E+03  0.00000000000E+00 0. -1.
         21   -1    0    0  501  503 -0.00000000000E+00 -0.00000000000E+00 -0.11834455565E+01  0.11834455565E+01  0.00000000000E+00 0. -1.
          4    1    1    2  501    0 -0.18603697084E+02  0.16113292080E+02  0.17193094438E+03  0.17368357827E+03  0.00000000000E+00 0.  1.
         -4    1    1    2    0  502  0.18603697084E+02 -0.16113292080E+02  0.49275645191E+03  0.49337070913E+03  0.00000000000E+00 0. -1.
<mgrwt>
<rscale>  2 0.24611699E+02</rscale>
<asrwt>0</asrwt>
<pdfrwt beam="1">  1       21 0.10244137E+00 0.24611699E+02</pdfrwt>
<pdfrwt beam="2">  1       21 0.18206908E-03 0.24611699E+02</pdfrwt>
<totfact> 0.32395445E+07</totfact>
</mgrwt>
</event>
<event>
 4    1  0.7424968E+004  0.2679879E+02  0.7546771E-02  0.1636433E+00
         21   -1    0    0  503  502  0.00000000000E+00  0.00000000000E+00  0.82223242760E+02  0.82223242760E+02  0.00000000000E+00 0.  1.
         21   -1    0    0  501  503 -0.00000000000E+00 -0.00000000000E+00 -0.97057633438E+01  0.97057633438E+01  0.00000000000E+00 0.  1.
          2    1    1    2  501    0 -0.20018038711E+02 -0.17817217920E+02  0.50799479836E+02  0.57434852484E+02  0.00000000000E+00 0. -1.
         -2    1    1    2    0  502  0.20018038711E+02  0.17817217920E+02  0.21717999580E+02  0.34494153620E+02  0.00000000000E+00 0.  1.
<mgrwt>
<rscale>  2 0.26798790E+02</rscale>
<asrwt>0</asrwt>
<pdfrwt beam="1">  1       21 0.12649729E-01 0.26798790E+02</pdfrwt>
<pdfrwt beam="2">  1       21 0.14931944E-02 0.26798790E+02</pdfrwt>
<totfact> 0.76577791E+07</totfact>
</mgrwt>
</event>
<event>
 4    1  0.7424968E+004  0.2202013E+02  0.7546771E-02  0.1707904E+00
         21   -1    0    0  503  502  0.00000000000E+00  0.00000000000E+00  0.58311801176E+02  0.58311801176E+02  0.00000000000E+00 0.  1.
         21   -1    0    0  501  503 -0.00000000000E+00 -0.00000000000E+00 -0.95413723085E+01  0.95413723085E+01  0.00000000000E+00 0.  1.
          2    1    1    2  501    0 -0.15397348136E+02  0.15741916673E+02  0.36546349442E+02  0.42667574664E+02  0.00000000000E+00 0.  1.
         -2    1    1    2    0  502  0.15397348136E+02 -0.15741916673E+02  0.12224079425E+02  0.25185598821E+02  0.00000000000E+00 0. -1.
<mgrwt>
<rscale>  2 0.22020133E+02</rscale>
<asrwt>0</asrwt>
<pdfrwt beam="1">  1       21 0.89710461E-02 0.22020133E+02</pdfrwt>
<pdfrwt beam="2">  1       21 0.14679035E-02 0.22020133E+02</pdfrwt>
<totfact> 0.13199002E+08</totfact>
</mgrwt>
</event>
<event>
 4    1  0.7424968E+004  0.2276135E+02  0.7546771E-02  0.1695408E+00
         21   -1    0    0  503  502  0.00000000000E+00  0.00000000000E+00  0.13083504352E+01  0.13083504352E+01  0.00000000000E+00 0. -1.
         21   -1    0    0  501  503 -0.00000000000E+00 -0.00000000000E+00 -0.39635981630E+03  0.39635981630E+03  0.00000000000E+00 0. -1.
          2    1    1    2  501    0 -0.18192250804E+02  0.13679221781E+02 -0.19136133645E+03  0.19271024930E+03  0.00000000000E+00 0. -1.
         -2    1    1    2    0  502  0.18192250804E+02 -0.13679221781E+02 -0.20369012941E+03  0.20495791743E+03  0.00000000000E+00 0.  1.
<mgrwt>
<rscale>  2 0.22761351E+02</rscale>
<asrwt>0</asrwt>
<pdfrwt beam="1">  1       21 0.20128461E-03 0.22761351E+02</pdfrwt>
<pdfrwt beam="2">  1       21 0.60978455E-01 0.22761351E+02</pdfrwt>
<totfact> 0.81804620E+07</totfact>
</mgrwt>
</event>
<event>
 4    1  0.7424968E+004  0.2090451E+02  0.7546771E-02  0.1727917E+00
         21   -1    0    0  503  502  0.00000000000E+00  0.00000000000E+00  0.76642570350E+02  0.76642570350E+02  0.00000000000E+00 0.  1.
         21   -1    0    0  501  503 -0.00000000000E+00 -0.00000000000E+00 -0.59430547814E+01  0.59430547814E+01  0.00000000000E+00 0.  1.
          4    1    1    2  501    0  0.20847840038E+02  0.15381696177E+01  0.43669952440E+02  0.48415525878E+02  0.00000000000E+00 0.  1.
         -4    1    1    2    0  502 -0.20847840038E+02 -0.15381696177E+01  0.27029563129E+02  0.34170099253E+02  0.00000000000E+00 0. -1.
<mgrwt>
<rscale>  2 0.20904507E+02</rscale>
<asrwt>0</asrwt>
<pdfrwt beam="1">  1       21 0.11791164E-01 0.20904507E+02</pdfrwt>
<pdfrwt beam="2">  1       21 0.91431618E-03 0.20904507E+02</pdfrwt>
<totfact> 0.16859984E+08</totfact>
</mgrwt>
</event>
<event>
 4    1  0.7424968E+004  0.2068306E+02  0.7546771E-02  0.1732076E+00
         21   -1    0    0  503  502  0.00000000000E+00  0.00000000000E+00  0.88737405438E+01  0.88737405438E+01  0.00000000000E+00 0.  1.
         21   -1    0    0  501  503 -0.00000000000E+00 -0.00000000000E+00 -0.48281139789E+02  0.48281139789E+02  0.00000000000E+00 0.  1.
          1    1    1    2  501    0 -0.16976361840E+02 -0.11814903123E+02 -0.20812958361E+02  0.29342256779E+02  0.00000000000E+00 0.  1.
         -1    1    1    2    0  502  0.16976361840E+02  0.11814903123E+02 -0.18594440884E+02  0.27812623554E+02  0.00000000000E+00 0. -1.
<mgrwt>
<rscale>  2 0.20683056E+02</rscale>
<asrwt>0</asrwt>
<pdfrwt beam="1">  1       21 0.13651909E-02 0.20683056E+02</pdfrwt>
<pdfrwt beam="2">  1       21 0.74278677E-02 0.20683056E+02</pdfrwt>
<totfact> 0.19647807E+08</totfact>
</mgrwt>
</event>
<event>
 4    1  0.7424968E+004  0.5889142E+02  0.7546771E-02  0.1402544E+00
         21   -1    0    0  501  502  0.00000000000E+00  0.00000000000E+00  0.65098842795E+01  0.65098842795E+01  0.00000000000E+00 0. -1.
         21   -1    0    0  502  503 -0.00000000000E+00 -0.00000000000E+00 -0.70383269630E+03  0.70383269630E+03  0.00000000000E+00 0. -1.
          2    1    1    2  501    0  0.57768551146E+02  0.11445256449E+02 -0.52376487975E+03  0.52706531725E+03  0.00000000000E+00 0. -1.
         -2    1    1    2    0  503 -0.57768551146E+02 -0.11445256449E+02 -0.17355793228E+03  0.18327726333E+03  0.00000000000E+00 0.  1.
<mgrwt>
<rscale>  2 0.58891420E+02</rscale>
<asrwt>0</asrwt>
<pdfrwt beam="1">  1       21 0.10015211E-02 0.58891420E+02</pdfrwt>
<pdfrwt beam="2">  1       21 0.10828191E+00 0.58891420E+02</pdfrwt>
<totfact> 0.24759950E+06</totfact>
</mgrwt>
</event>
<event>
 4    1  0.7424968E+004  0.2678879E+02  0.7546771E-02  0.1636563E+00
         21   -1    0    0  501  502  0.00000000000E+00  0.00000000000E+00  0.34408767191E+01  0.34408767191E+01  0.00000000000E+00 0. -1.
         21   -1    0    0  502  503 -0.00000000000E+00 -0.00000000000E+00 -0.21665781944E+03  0.21665781944E+03  0.00000000000E+00 0. -1.
          2    1    1    2  501    0  0.25377020767E+02 -0.85817284104E+01 -0.12788037769E+03  0.13065615272E+03  0.00000000000E+00 0.  1.
         -2    1    1    2    0  503 -0.25377020767E+02  0.85817284104E+01 -0.85336565029E+02  0.89442543437E+02  0.00000000000E+00 0. -1.
<mgrwt>
<rscale>  2 0.26788790E+02</rscale>
<asrwt>0</asrwt>
<pdfrwt beam="1">  1       21 0.52936565E-03 0.26788790E+02</pdfrwt>
<pdfrwt beam="2">  1       21 0.33331972E-01 0.26788790E+02</pdfrwt>
<totfact> 0.66015179E+07</totfact>
</mgrwt>
</event>
<event>
 4    1  0.7424968E+004  0.2193981E+02  0.7546771E-02  0.1709295E+00
         21   -1    0    0  503  502  0.00000000000E+00  0.00000000000E+00  0.19178199635E+03  0.19178199635E+03  0.00000000000E+00 0. -1.
         21   -1    0    0  501  503 -0.00000000000E+00 -0.00000000000E+00 -0.25369577460E+01  0.25369577460E+01  0.00000000000E+00 0. -1.
          4    1    1    2  501    0 -0.18774192694E+02 -0.11352741515E+02  0.84589884830E+02  0.87388807446E+02  0.00000000000E+00 0. -1.
         -4    1    1    2    0  502  0.18774192694E+02  0.11352741515E+02  0.10465515377E+03  0.10693014665E+03  0.00000000000E+00 0.  1.
<mgrwt>
<rscale>  2 0.21939805E+02</rscale>
<asrwt>0</asrwt>
<pdfrwt beam="1">  1       21 0.29504911E-01 0.21939805E+02</pdfrwt>
<pdfrwt beam="2">  1       21 0.39030134E-03 0.21939805E+02</pdfrwt>
<totfact> 0.12292075E+08</totfact>
</mgrwt>
</event>
<event>
 4    1  0.7424968E+004  0.3520706E+02  0.7546771E-02  0.1546770E+00
         21   -1    0    0  501  502  0.00000000000E+00  0.00000000000E+00  0.22715073094E+03  0.22715073094E+03  0.00000000000E+00 0. -1.
         21   -1    0    0  502  503 -0.00000000000E+00 -0.00000000000E+00 -0.54576582530E+01  0.54576582530E+01  0.00000000000E+00 0. -1.
          3    1    1    2  501    0  0.34700622773E+02 -0.59500876867E+01  0.11222558677E+03  0.11761853209E+03  0.00000000000E+00 0. -1.
         -3    1    1    2    0  503 -0.34700622773E+02  0.59500876867E+01  0.10946748591E+03  0.11498985710E+03  0.00000000000E+00 0.  1.
<mgrwt>
<rscale>  2 0.35207056E+02</rscale>
<asrwt>0</asrwt>
<pdfrwt beam="1">  1       21 0.34946259E-01 0.35207056E+02</pdfrwt>
<pdfrwt beam="2">  1       21 0.83963991E-03 0.35207056E+02</pdfrwt>
<totfact> 0.31987262E+07</totfact>
</mgrwt>
</event>
<event>
 4    1  0.7424968E+004  0.2373481E+02  0.7546771E-02  0.1679869E+00
         21   -1    0    0  503  502  0.00000000000E+00  0.00000000000E+00  0.21427423547E+03  0.21427423547E+03  0.00000000000E+00 0.  1.
         21   -1    0    0  501  503 -0.00000000000E+00 -0.00000000000E+00 -0.26346050746E+01  0.26346050746E+01  0.00000000000E+00 0.  1.
          2    1    1    2  501    0  0.23389334383E+02  0.40348896811E+01  0.11079229757E+03  0.11330610971E+03  0.00000000000E+00 0. -1.
         -2    1    1    2    0  502 -0.23389334383E+02 -0.40348896811E+01  0.10084733282E+03  0.10360273083E+03  0.00000000000E+00 0.  1.
<mgrwt>
<rscale>  2 0.23734812E+02</rscale>
<asrwt>0</asrwt>
<pdfrwt beam="1">  1       21 0.32965253E-01 0.23734812E+02</pdfrwt>
<pdfrwt beam="2">  1       21 0.40532402E-03 0.23734812E+02</pdfrwt>
<totfact> 0.97029953E+07</totfact>
</mgrwt>
</event>
<event>
 4    1  0.7424968E+004  0.2351419E+02  0.7546771E-02  0.1683308E+00
         21   -1    0    0  503  502  0.00000000000E+00  0.00000000000E+00  0.14253503783E+02  0.14253503783E+02  0.00000000000E+00 0.  1.
         21   -1    0    0  501  503 -0.00000000000E+00 -0.00000000000E+00 -0.10901259543E+03  0.10901259543E+03  0.00000000000E+00 0.  1.
          3    1    1    2  501    0 -0.19193147418E+02  0.13584565973E+02 -0.96845747580E+02  0.99659501126E+02  0.00000000000E+00 0.  1.
         -3    1    1    2    0  502  0.19193147418E+02 -0.13584565973E+02  0.20866559278E+01  0.23606598091E+02  0.00000000000E+00 0. -1.
<mgrwt>
<rscale>  2 0.23514194E+02</rscale>
<asrwt>0</asrwt>
<pdfrwt beam="1">  1       21 0.21928467E-02 0.23514194E+02</pdfrwt>
<pdfrwt beam="2">  1       21 0.16771169E-01 0.23514194E+02</pdfrwt>
<totfact> 0.25459235E+07</totfact>
</mgrwt>
</event>
<event>
 4    1  0.7424968E+004  0.2511189E+02  0.7546771E-02  0.1659400E+00
         21   -1    0    0  501  502  0.00000000000E+00  0.00000000000E+00  0.28821364041E+03  0.28821364041E+03  0.00000000000E+00 0.  1.
         21   -1    0    0  502  503 -0.00000000000E+00 -0.00000000000E+00 -0.21944739358E+01  0.21944739358E+01  0.00000000000E+00 0.  1.
          2    1    1    2  501    0 -0.82482693791E+01 -0.23718619253E+02  0.13511312755E+03  0.13742694089E+03  0.00000000000E+00 0. -1.
         -2    1    1    2    0  503  0.82482693791E+01  0.23718619253E+02  0.15090603892E+03  0.15298117345E+03  0.00000000000E+00 0.  1.
<mgrwt>
<rscale>  2 0.25111887E+02</rscale>
<asrwt>0</asrwt>
<pdfrwt beam="1">  1       21 0.44340530E-01 0.25111887E+02</pdfrwt>
<pdfrwt beam="2">  1       21 0.33761160E-03 0.25111887E+02</pdfrwt>
<totfact> 0.73726424E+07</totfact>
</mgrwt>
</event>
<event>
 4    1  0.7424968E+004  0.3177273E+02  0.7546771E-02  0.1579281E+00
         21   -1    0    0  501  502  0.00000000000E+00  0.00000000000E+00  0.20037678019E+03  0.20037678019E+03  0.00000000000E+00 0.  1.
         21   -1    0    0  502  503 -0.00000000000E+00 -0.00000000000E+00 -0.50498851883E+01  0.50498851883E+01  0.00000000000E+00 0.  1.
          5    1    1    2  501    0 -0.31473931765E+02 -0.43471922390E+01  0.10263779639E+03  0.10744311848E+03  0.00000000000E+00 0.  1.
         -5    1    1    2    0  503  0.31473931765E+02  0.43471922390E+01  0.92689098606E+02  0.97983546892E+02  0.00000000000E+00 0. -1.
<mgrwt>
<rscale>  2 0.31772731E+02</rscale>
<asrwt>0</asrwt>
<pdfrwt beam="1">  1       21 0.30827191E-01 0.31772731E+02</pdfrwt>
<pdfrwt beam="2">  1       21 0.77690557E-03 0.31772731E+02</pdfrwt>
<totfact> 0.44581000E+07</totfact>
</mgrwt>
</event>
<event>
 4    1  0.7424968E+004  0.2014098E+02  0.7546771E-02  0.1742539E+00
         21   -1    0    0  503  502  0.00000000000E+00  0.00000000000E+00  0.51314497638E+01  0.51314497638E+01  0.00000000000E+00 0.  1.
         21   -1    0    0  501  503 -0.00000000000E+00 -0.00000000000E+00 -0.80800955409E+02  0.80800955409E+02  0.00000000000E+00 0.  1.
          4    1    1    2  501    0 -0.91827620641E+01 -0.17925842108E+02 -0.31516093931E+02  0.37402180566E+02  0.00000000000E+00 0.  1.
         -4    1    1    2    0  502  0.91827620641E+01  0.17925842108E+02 -0.44153411714E+02  0.48530224607E+02  0.00000000000E+00 0. -1.
<mgrwt>
<rscale>  2 0.20140977E+02</rscale>
<asrwt>0</asrwt>
<pdfrwt beam="1">  1       21 0.78945387E-03 0.20140977E+02</pdfrwt>
<pdfrwt beam="2">  1       21 0.12430915E-01 0.20140977E+02</pdfrwt>
<totfact> 0.18988081E+08</totfact>
</mgrwt>
</event>
<event>
 4    1  0.7424968E+004  0.3041720E+02  0.7546771E-02  0.1593522E+00
         21   -1    0    0  501  502  0.00000000000E+00  0.00000000000E+00  0.50892292606E+02  0.50892292606E+02  0.00000000000E+00 0. -1.
         21   -1    0    0  502  503 -0.00000000000E+00 -0.00000000000E+00 -0.21027394254E+02  0.21027394254E+02  0.00000000000E+00 0. -1.
          3    1    1    2  501    0 -0.18901780738E+02  0.23831249185E+02  0.28165897628E+02  0.41455078603E+02  0.00000000000E+00 0. -1.
         -3    1    1    2    0  503  0.18901780738E+02 -0.23831249185E+02  0.16990007246E+01  0.30464608257E+02  0.00000000000E+00 0.  1.
<mgrwt>
<rscale>  2 0.30417195E+02</rscale>
<asrwt>0</asrwt>
<pdfrwt beam="1">  1       21 0.78295834E-02 0.30417195E+02</pdfrwt>
<pdfrwt beam="2">  1       21 0.32349837E-02 0.30417195E+02</pdfrwt>
<totfact> 0.52925538E+07</totfact>
</mgrwt>
</event>
<event>
 4    1  0.7424968E+004  0.3013169E+02  0.7546771E-02  0.1596638E+00
         21   -1    0    0  501  502  0.00000000000E+00  0.00000000000E+00  0.64097356275E+02  0.64097356275E+02  0.00000000000E+00 0.  1.
         21   -1    0    0  502  503 -0.00000000000E+00 -0.00000000000E+00 -0.14405546377E+02  0.14405546377E+02  0.00000000000E+00 0.  1.
          5    1    1    2  501    0 -0.24528661313E+02  0.17500380702E+02  0.29921404587E+02  0.42464208494E+02  0.00000000000E+00 0.  1.
         -5    1    1    2    0  503  0.24528661313E+02 -0.17500380702E+02  0.19770405311E+02  0.36038694159E+02  0.00000000000E+00 0. -1.
<mgrwt>
<rscale>  2 0.30131687E+02</rscale>
<asrwt>0</asrwt>
<pdfrwt beam="1">  1       21 0.98611316E-02 0.30131687E+02</pdfrwt>
<pdfrwt beam="2">  1       21 0.22162379E-02 0.30131687E+02</pdfrwt>
<totfact> 0.65136318E+07</totfact>
</mgrwt>
</event>
<event>
 4    1  0.7424968E+004  0.2201400E+02  0.7546771E-02  0.1708010E+00
         21   -1    0    0  503  502  0.00000000000E+00  0.00000000000E+00  0.20852368281E+03  0.20852368281E+03  0.00000000000E+00 0. -1.
         21   -1    0    0  501  503 -0.00000000000E+00 -0.00000000000E+00 -0.27786539805E+01  0.27786539805E+01  0.00000000000E+00 0. -1.
          3    1    1    2  501    0  0.49081294907E+01  0.21459885042E+02  0.14560721894E+03  0.14726193876E+03  0.00000000000E+00 0.  1.
         -3    1    1    2    0  502 -0.49081294907E+01 -0.21459885042E+02  0.60137809893E+02  0.64040398030E+02  0.00000000000E+00 0. -1.
<mgrwt>
<rscale>  2 0.22014005E+02</rscale>
<asrwt>0</asrwt>
<pdfrwt beam="1">  1       21 0.32080554E-01 0.22014005E+02</pdfrwt>
<pdfrwt beam="2">  1       21 0.42748539E-03 0.22014005E+02</pdfrwt>
<totfact> 0.92457061E+07</totfact>
</mgrwt>
</event>
<event>
 4    1  0.7424968E+004  0.2995117E+02  0.7546771E-02  0.1598629E+00
         21   -1    0    0  503  502  0.00000000000E+00  0.00000000000E+00  0.13272396827E+01  0.13272396827E+01  0.00000000000E+00 0. -1.
         21   -1    0    0  501  503 -0.00000000000E+00 -0.00000000000E+00 -0.84504237636E+03  0.84504237636E+03  0.00000000000E+00 0. -1.
          3    1    1    2  501    0 -0.28315015236E+02 -0.97638491868E+01 -0.61119009218E+03  0.61192352595E+03  0.00000000000E+00 0. -1.
         -3    1    1    2    0  502  0.28315015236E+02  0.97638491868E+01 -0.23252504450E+03  0.23444609009E+03  0.00000000000E+00 0.  1.
<mgrwt>
<rscale>  2 0.29951174E+02</rscale>
<asrwt>0</asrwt>
<pdfrwt beam="1">  1       21 0.20419035E-03 0.29951174E+02</pdfrwt>
<pdfrwt beam="2">  1       21 0.13000676E+00 0.29951174E+02</pdfrwt>
<totfact> 0.16516932E+07</totfact>
</mgrwt>
</event>
<event>
 4    1  0.7424968E+004  0.2121863E+02  0.7546771E-02  0.1722126E+00
         21   -1    0    0  501  502  0.00000000000E+00  0.00000000000E+00  0.58216702472E+03  0.58216702472E+03  0.00000000000E+00 0. -1.
         21   -1    0    0  502  503 -0.00000000000E+00 -0.00000000000E+00 -0.79764105052E+00  0.79764105052E+00  0.00000000000E+00 0. -1.
          5    1    1    2  501    0  0.14901297904E+02  0.15105686792E+02  0.23983905563E+03  0.24077583571E+03  0.00000000000E+00 0.  1.
         -5    1    1    2    0  503 -0.14901297904E+02 -0.15105686792E+02  0.34153032804E+03  0.34218883007E+03  0.00000000000E+00 0. -1.
<mgrwt>
<rscale>  2 0.21218635E+02</rscale>
<asrwt>0</asrwt>
<pdfrwt beam="1">  1       21 0.89563818E-01 0.21218635E+02</pdfrwt>
<pdfrwt beam="2">  1       21 0.12271447E-03 0.21218635E+02</pdfrwt>
<totfact> 0.73895785E+07</totfact>
</mgrwt>
</event>
<event>
 4    1  0.7424968E+004  0.2062885E+02  0.7546771E-02  0.1733104E+00
         21   -1    0    0  503  502  0.00000000000E+00  0.00000000000E+00  0.73722477298E+00  0.73722477298E+00  0.00000000000E+00 0. -1.
         21   -1    0    0  501  503 -0.00000000000E+00 -0.00000000000E+00 -0.57792329421E+03  0.57792329421E+03  0.00000000000E+00 0. -1.
          5    1    1    2  501    0  0.10485782921E+02 -0.17765071437E+02 -0.27858317415E+03  0.27934590443E+03  0.00000000000E+00 0. -1.
         -5    1    1    2    0  502 -0.10485782921E+02  0.17765071437E+02 -0.29860289529E+03  0.29931461455E+03  0.00000000000E+00 0.  1.
<mgrwt>
<rscale>  2 0.20628849E+02</rscale>
<asrwt>0</asrwt>
<pdfrwt beam="1">  1       21 0.11341882E-03 0.20628849E+02</pdfrwt>
<pdfrwt beam="2">  1       21 0.88911571E-01 0.20628849E+02</pdfrwt>
<totfact> 0.83375427E+07</totfact>
</mgrwt>
</event>
<event>
 4    1  0.7424968E+004  0.2906817E+02  0.7546771E-02  0.1608623E+00
         21   -1    0    0  503  502  0.00000000000E+00  0.00000000000E+00  0.35143803910E+02  0.35143803910E+02  0.00000000000E+00 0.  1.
         21   -1    0    0  501  503 -0.00000000000E+00 -0.00000000000E+00 -0.24737543914E+02  0.24737543914E+02  0.00000000000E+00 0.  1.
          2    1    1    2  501    0 -0.29008449329E+02 -0.18623591389E+01  0.18584935867E+00  0.29068764232E+02  0.00000000000E+00 0. -1.
         -2    1    1    2    0  502  0.29008449329E+02  0.18623591389E+01  0.10220410637E+02  0.30812583592E+02  0.00000000000E+00 0.  1.
<mgrwt>
<rscale>  2 0.29068170E+02</rscale>
<asrwt>0</asrwt>
<pdfrwt beam="1">  1       21 0.54067390E-02 0.29068170E+02</pdfrwt>
<pdfrwt beam="2">  1       21 0.38057760E-02 0.29068170E+02</pdfrwt>
<totfact> 0.74049530E+07</totfact>
</mgrwt>
</event>
<event>
 4    1  0.7424968E+004  0.2023960E+02  0.7546771E-02  0.1740605E+00
         21   -1    0    0  501  502  0.00000000000E+00  0.00000000000E+00  0.47612159966E+02  0.47612159966E+02  0.00000000000E+00 0. -1.
         21   -1    0    0  502  503 -0.00000000000E+00 -0.00000000000E+00 -0.95848547001E+01  0.95848547001E+01  0.00000000000E+00 0. -1.
          3    1    1    2  501    0 -0.10497553672E+02  0.17304416515E+02  0.98637603498E+01  0.22515222234E+02  0.00000000000E+00 0. -1.
         -3    1    1    2    0  503  0.10497553672E+02 -0.17304416515E+02  0.28163544916E+02  0.34681792432E+02  0.00000000000E+00 0.  1.
<mgrwt>
<rscale>  2 0.20239601E+02</rscale>
<asrwt>0</asrwt>
<pdfrwt beam="1">  1       21 0.73249476E-02 0.20239601E+02</pdfrwt>
<pdfrwt beam="2">  1       21 0.14745931E-02 0.20239601E+02</pdfrwt>
<totfact> 0.17763651E+08</totfact>
</mgrwt>
</event>
<event>
 4    1  0.7424968E+004  0.2255075E+02  0.7546771E-02  0.1698897E+00
         21   -1    0    0  503  502  0.00000000000E+00  0.00000000000E+00  0.56547574854E+01  0.56547574854E+01  0.00000000000E+00 0. -1.
         21   -1    0    0  501  503 -0.00000000000E+00 -0.00000000000E+00 -0.11685849677E+03  0.11685849677E+03  0.00000000000E+00 0. -1.
          1    1    1    2  501    0  0.16778452671E+02 -0.15067181151E+02 -0.85007003979E+02  0.87947297556E+02  0.00000000000E+00 0.  1.
         -1    1    1    2    0  502 -0.16778452671E+02  0.15067181151E+02 -0.26196735303E+02  0.34565956697E+02  0.00000000000E+00 0. -1.
<mgrwt>
<rscale>  2 0.22550752E+02</rscale>
<asrwt>0</asrwt>
<pdfrwt beam="1">  1       21 0.86996270E-03 0.22550752E+02</pdfrwt>
<pdfrwt beam="2">  1       21 0.17978230E-01 0.22550752E+02</pdfrwt>
<totfact> 0.90833531E+07</totfact>
</mgrwt>
</event>
<event>
 4    1  0.7424968E+004  0.2246680E+02  0.7546771E-02  0.1700302E+00
         21   -1    0    0  501  502  0.00000000000E+00  0.00000000000E+00  0.45835018620E+01  0.45835018620E+01  0.00000000000E+00 0.  1.
         21   -1    0    0  502  503 -0.00000000000E+00 -0.00000000000E+00 -0.11041221603E+03  0.11041221603E+03  0.00000000000E+00 0.  1.
          5    1    1    2  501    0 -0.22442864604E+02 -0.10366992098E+01 -0.49980428584E+02  0.54797811620E+02  0.00000000000E+00 0. -1.
         -5    1    1    2    0  503  0.22442864604E+02  0.10366992098E+01 -0.55848285586E+02  0.60197906274E+02  0.00000000000E+00 0.  1.
<mgrwt>
<rscale>  2 0.22466796E+02</rscale>
<asrwt>0</asrwt>
<pdfrwt beam="1">  1       21 0.70515409E-03 0.22466796E+02</pdfrwt>
<pdfrwt beam="2">  1       21 0.16986496E-01 0.22466796E+02</pdfrwt>
<totfact> 0.13684053E+08</totfact>
</mgrwt>
</event>
<event>
 4    1  0.7424968E+004  0.2343451E+02  0.7546771E-02  0.1684562E+00
         21   -1    0    0  503  502  0.00000000000E+00  0.00000000000E+00  0.71170756595E+02  0.71170756595E+02  0.00000000000E+00 0. -1.
         21   -1    0    0  501  503 -0.00000000000E+00 -0.00000000000E+00 -0.79137555717E+01  0.79137555717E+01  0.00000000000E+00 0. -1.
          2    1    1    2  501    0  0.13680617987E+02  0.19026748294E+02  0.37874196955E+02  0.44537975415E+02  0.00000000000E+00 0.  1.
         -2    1    1    2    0  502 -0.13680617987E+02 -0.19026748294E+02  0.25382804068E+02  0.34546536751E+02  0.00000000000E+00 0. -1.
<mgrwt>
<rscale>  2 0.23434514E+02</rscale>
<asrwt>0</asrwt>
<pdfrwt beam="1">  1       21 0.10949347E-01 0.23434514E+02</pdfrwt>
<pdfrwt beam="2">  1       21 0.12175009E-02 0.23434514E+02</pdfrwt>
<totfact> 0.12837790E+08</totfact>
</mgrwt>
</event>
<event>
 4    1  0.7424968E+004  0.2682515E+02  0.7546771E-02  0.1636091E+00
         21   -1    0    0  501  502  0.00000000000E+00  0.00000000000E+00  0.59400776545E+02  0.59400776545E+02  0.00000000000E+00 0. -1.
         21   -1    0    0  502  503 -0.00000000000E+00 -0.00000000000E+00 -0.13240737138E+02  0.13240737138E+02  0.00000000000E+00 0. -1.
          2    1    1    2  501    0  0.14173362342E+02  0.22775083971E+02  0.12485401417E+02  0.29588408178E+02  0.00000000000E+00 0.  1.
         -2    1    1    2    0  503 -0.14173362342E+02 -0.22775083971E+02  0.33674637989E+02  0.43053105506E+02  0.00000000000E+00 0. -1.
<mgrwt>
<rscale>  2 0.26825150E+02</rscale>
<asrwt>0</asrwt>
<pdfrwt beam="1">  1       21 0.91385809E-02 0.26825150E+02</pdfrwt>
<pdfrwt beam="2">  1       21 0.20370365E-02 0.26825150E+02</pdfrwt>
<totfact> 0.81889944E+07</totfact>
</mgrwt>
</event>
<event>
 4    1  0.7424968E+004  0.2258622E+02  0.7546771E-02  0.1698306E+00
         21   -1    0    0  501  502  0.00000000000E+00  0.00000000000E+00  0.33915427661E+01  0.33915427661E+01  0.00000000000E+00 0. -1.
         21   -1    0    0  502  503 -0.00000000000E+00 -0.00000000000E+00 -0.17047083352E+03  0.17047083352E+03  0.00000000000E+00 0. -1.
          5    1    1    2  501    0  0.87824770598E+01  0.20808785952E+02 -0.11335743823E+03  0.11558566640E+03  0.00000000000E+00 0.  1.
         -5    1    1    2    0  503 -0.87824770598E+01 -0.20808785952E+02 -0.53721852529E+02  0.58276709887E+02  0.00000000000E+00 0. -1.
<mgrwt>
<rscale>  2 0.22586223E+02</rscale>
<asrwt>0</asrwt>
<pdfrwt beam="1">  1       21 0.52177568E-03 0.22586223E+02</pdfrwt>
<pdfrwt beam="2">  1       21 0.26226288E-01 0.22586223E+02</pdfrwt>
<totfact> 0.99991859E+07</totfact>
</mgrwt>
</event>
<event>
 4    1  0.7424968E+004  0.2176713E+02  0.7546771E-02  0.1712311E+00
         21   -1    0    0  503  502  0.00000000000E+00  0.00000000000E+00  0.68771413971E+02  0.68771413971E+02  0.00000000000E+00 0. -1.
         21   -1    0    0  501  503 -0.00000000000E+00 -0.00000000000E+00 -0.71230446386E+01  0.71230446386E+01  0.00000000000E+00 0. -1.
          2    1    1    2  501    0  0.17526525680E+02  0.12908482517E+02  0.37693802362E+02  0.43527356453E+02  0.00000000000E+00 0.  1.
         -2    1    1    2    0  502 -0.17526525680E+02 -0.12908482517E+02  0.23954566971E+02  0.32367102157E+02  0.00000000000E+00 0. -1.
<mgrwt>
<rscale>  2 0.21767132E+02</rscale>
<asrwt>0</asrwt>
<pdfrwt beam="1">  1       21 0.10580217E-01 0.21767132E+02</pdfrwt>
<pdfrwt beam="2">  1       21 0.10958531E-02 0.21767132E+02</pdfrwt>
<totfact> 0.15580387E+08</totfact>
</mgrwt>
</event>
<event>
 4    1  0.7424968E+004  0.2071860E+02  0.7546771E-02  0.1731404E+00
         21   -1    0    0  503  502  0.00000000000E+00  0.00000000000E+00  0.13545913552E+01  0.13545913552E+01  0.00000000000E+00 0. -1.
         21   -1    0    0  501  503 -0.00000000000E+00 -0.00000000000E+00 -0.32106895000E+03  0.32106895000E+03  0.00000000000E+00 0. -1.
          5    1    1    2  501    0  0.20718059716E+02  0.14975086617E+00 -0.17824282436E+03  0.17944292926E+03  0.00000000000E+00 0. -1.
         -5    1    1    2    0  502 -0.20718059716E+02 -0.14975086617E+00 -0.14147153428E+03  0.14298061210E+03  0.00000000000E+00 0.  1.
<mgrwt>
<rscale>  2 0.20718601E+02</rscale>
<asrwt>0</asrwt>
<pdfrwt beam="1">  1       21 0.20839859E-03 0.20718601E+02</pdfrwt>
<pdfrwt beam="2">  1       21 0.49395242E-01 0.20718601E+02</pdfrwt>
<totfact> 0.11487989E+08</totfact>
</mgrwt>
</event>
<event>
 4    1  0.7424968E+004  0.2103690E+02  0.7546771E-02  0.1725461E+00
         21   -1    0    0  501  502  0.00000000000E+00  0.00000000000E+00  0.25527465717E+02  0.25527465717E+02  0.00000000000E+00 0. -1.
         21   -1    0    0  502  503 -0.00000000000E+00 -0.00000000000E+00 -0.25872896534E+02  0.25872896534E+02  0.00000000000E+00 0. -1.
          3    1    1    2  501    0  0.11111744960E+02 -0.17862820643E+02  0.14589672079E+02  0.25600972028E+02  0.00000000000E+00 0.  1.
         -3    1    1    2    0  503 -0.11111744960E+02  0.17862820643E+02 -0.14935102896E+02  0.25799390224E+02  0.00000000000E+00 0. -1.
<mgrwt>
<rscale>  2 0.21036902E+02</rscale>
<asrwt>0</asrwt>
<pdfrwt beam="1">  1       21 0.39273024E-02 0.21036902E+02</pdfrwt>
<pdfrwt beam="2">  1       21 0.39804456E-02 0.21036902E+02</pdfrwt>
<totfact> 0.10508888E+08</totfact>
</mgrwt>
</event>
<event>
 4    1  0.7424968E+004  0.2543799E+02  0.7546771E-02  0.1654789E+00
         21   -1    0    0  503  502  0.00000000000E+00  0.00000000000E+00  0.11096627097E+03  0.11096627097E+03  0.00000000000E+00 0. -1.
         21   -1    0    0  501  503 -0.00000000000E+00 -0.00000000000E+00 -0.11405310650E+02  0.11405310650E+02  0.00000000000E+00 0. -1.
          2    1    1    2  501    0  0.13087118448E+02  0.21813267463E+02  0.70068501256E+01  0.26385360626E+02  0.00000000000E+00 0. -1.
         -2    1    1    2    0  502 -0.13087118448E+02 -0.21813267463E+02  0.92554110197E+02  0.95986220996E+02  0.00000000000E+00 0.  1.
<mgrwt>
<rscale>  2 0.25437989E+02</rscale>
<asrwt>0</asrwt>
<pdfrwt beam="1">  1       21 0.17071733E-01 0.25437989E+02</pdfrwt>
<pdfrwt beam="2">  1       21 0.17546633E-02 0.25437989E+02</pdfrwt>
<totfact> 0.35399685E+07</totfact>
</mgrwt>
</event>
<event>
 4    1  0.7424968E+004  0.2289685E+02  0.7546771E-02  0.1693188E+00
         21   -1    0    0  501  502  0.00000000000E+00  0.00000000000E+00  0.26598680942E+02  0.26598680942E+02  0.00000000000E+00 0. -1.
         21   -1    0    0  502  503 -0.00000000000E+00 -0.00000000000E+00 -0.23234448210E+02  0.23234448210E+02  0.00000000000E+00 0. -1.
          2    1    1    2  501    0  0.22330205384E+02  0.50624002271E+01  0.11386182005E+02  0.25571685693E+02  0.00000000000E+00 0.  1.
         -2    1    1    2    0  503 -0.22330205384E+02 -0.50624002271E+01 -0.80219492732E+01  0.24261443459E+02  0.00000000000E+00 0. -1.
<mgrwt>
<rscale>  2 0.22896855E+02</rscale>
<asrwt>0</asrwt>
<pdfrwt beam="1">  1       21 0.40921047E-02 0.22896855E+02</pdfrwt>
<pdfrwt beam="2">  1       21 0.35745305E-02 0.22896855E+02</pdfrwt>
<totfact> 0.11957860E+08</totfact>
</mgrwt>
</event>
<event>
 4    1  0.7424968E+004  0.2041868E+02  0.7546771E-02  0.1737128E+00
         21   -1    0    0  501  502  0.00000000000E+00  0.00000000000E+00  0.24958108798E+02  0.24958108798E+02  0.00000000000E+00 0.  1.
         21   -1    0    0  502  503 -0.00000000000E+00 -0.00000000000E+00 -0.16720626636E+02  0.16720626636E+02  0.00000000000E+00 0.  1.
          3    1    1    2  501    0  0.20411054082E+02 -0.55789400287E+00  0.47581263949E+01  0.20965737317E+02  0.00000000000E+00 0.  1.
         -3    1    1    2    0  503 -0.20411054082E+02  0.55789400287E+00  0.34793557666E+01  0.20712998117E+02  0.00000000000E+00 0. -1.
<mgrwt>
<rscale>  2 0.20418677E+02</rscale>
<asrwt>0</asrwt>
<pdfrwt beam="1">  1       21 0.38397091E-02 0.20418677E+02</pdfrwt>
<pdfrwt beam="2">  1       21 0.25724041E-02 0.20418677E+02</pdfrwt>
<totfact> 0.21266859E+08</totfact>
</mgrwt>
</event>
<event>
 4    1  0.7424968E+004  0.2380667E+02  0.7546771E-02  0.1678758E+00
         21   -1    0    0  503  502  0.00000000000E+00  0.00000000000E+00  0.32871608340E+01  0.32871608340E+01  0.00000000000E+00 0.  1.
         21   -1    0    0  501  503 -0.00000000000E+00 -0.00000000000E+00 -0.17340182636E+03  0.17340182636E+03  0.00000000000E+00 0.  1.
          1    1    1    2  501    0  0.19731991747E+02  0.13319393639E+02 -0.91719954027E+02  0.94759209114E+02  0.00000000000E+00 0.  1.
         -1    1    1    2    0  502 -0.19731991747E+02 -0.13319393639E+02 -0.78394711502E+02  0.81929778083E+02  0.00000000000E+00 0. -1.
<mgrwt>
<rscale>  2 0.23806674E+02</rscale>
<asrwt>0</asrwt>
<pdfrwt beam="1">  1       21 0.50571684E-03 0.23806674E+02</pdfrwt>
<pdfrwt beam="2">  1       21 0.26677215E-01 0.23806674E+02</pdfrwt>
<totfact> 0.10302272E+08</totfact>
</mgrwt>
</event>
<event>
 4    1  0.7424968E+004  0.2602603E+02  0.7546771E-02  0.1646687E+00
         21   -1    0    0  501  502  0.00000000000E+00  0.00000000000E+00  0.11844473892E+02  0.11844473892E+02  0.00000000000E+00 0. -1.
         21   -1    0    0  502  503 -0.00000000000E+00 -0.00000000000E+00 -0.63688420055E+02  0.63688420055E+02  0.00000000000E+00 0. -1.
          4    1    1    2  501    0 -0.13287605817E+02 -0.22378420352E+02 -0.13855841542E+02  0.29484546980E+02  0.00000000000E+00 0. -1.
         -4    1    1    2    0  503  0.13287605817E+02  0.22378420352E+02 -0.37988104620E+02  0.46048346967E+02  0.00000000000E+00 0.  1.
<mgrwt>
<rscale>  2 0.26026029E+02</rscale>
<asrwt>0</asrwt>
<pdfrwt beam="1">  1       21 0.18222267E-02 0.26026029E+02</pdfrwt>
<pdfrwt beam="2">  1       21 0.97982186E-02 0.26026029E+02</pdfrwt>
<totfact> 0.85949797E+07</totfact>
</mgrwt>
</event>
<event>
 4    1  0.7424968E+004  0.2443008E+02  0.7546771E-02  0.1669325E+00
         21   -1    0    0  501  502  0.00000000000E+00  0.00000000000E+00  0.40106201227E+02  0.40106201227E+02  0.00000000000E+00 0.  1.
         21   -1    0    0  502  503 -0.00000000000E+00 -0.00000000000E+00 -0.15235981197E+02  0.15235981197E+02  0.00000000000E+00 0.  1.
          3    1    1    2  501    0  0.23298300633E+02  0.73496848129E+01  0.82126345582E+01  0.25773553221E+02  0.00000000000E+00 0. -1.
         -3    1    1    2    0  503 -0.23298300633E+02 -0.73496848129E+01  0.16657585471E+02  0.29568629203E+02  0.00000000000E+00 0.  1.
<mgrwt>
<rscale>  2 0.24430077E+02</rscale>
<asrwt>0</asrwt>
<pdfrwt beam="1">  1       21 0.61701848E-02 0.24430077E+02</pdfrwt>
<pdfrwt beam="2">  1       21 0.23439971E-02 0.24430077E+02</pdfrwt>
<totfact> 0.12215423E+08</totfact>
</mgrwt>
</event>
<event>
 4    1  0.7424968E+004  0.2240868E+02  0.7546771E-02  0.1701278E+00
         21   -1    0    0  501  502  0.00000000000E+00  0.00000000000E+00  0.98083572145E+03  0.98083572145E+03  0.00000000000E+00 0. -1.
         21   -1    0    0  502  503 -0.00000000000E+00 -0.00000000000E+00 -0.51776936106E+00  0.51776936106E+00  0.00000000000E+00 0. -1.
          1    1    1    2  501    0  0.13222064711E+02  0.18092154025E+02  0.54213189835E+03  0.54259482511E+03  0.00000000000E+00 0.  1.
         -1    1    1    2    0  503 -0.13222064711E+02 -0.18092154025E+02  0.43818605374E+03  0.43875866570E+03  0.00000000000E+00 0. -1.
<mgrwt>
<rscale>  2 0.22408682E+02</rscale>
<asrwt>0</asrwt>
<pdfrwt beam="1">  1       21 0.15089632E+00 0.22408682E+02</pdfrwt>
<pdfrwt beam="2">  1       21 0.79657610E-04 0.22408682E+02</pdfrwt>
<totfact> 0.42814001E+07</totfact>
</mgrwt>
</event>
<event>
 4    1  0.7424968E+004  0.2446810E+02  0.7546771E-02  0.1668761E+00
         21   -1    0    0  501  502  0.00000000000E+00  0.00000000000E+00  0.93252296651E+02  0.93252296651E+02  0.00000000000E+00 0.  1.
         21   -1    0    0  502  503 -0.00000000000E+00 -0.00000000000E+00 -0.10423585567E+02  0.10423585567E+02  0.00000000000E+00 0.  1.
          1    1    1    2  501    0  0.19874991075E+02  0.14271389275E+02  0.92881794657E+01  0.26171704184E+02  0.00000000000E+00 0. -1.
         -1    1    1    2    0  503 -0.19874991075E+02 -0.14271389275E+02  0.73540531618E+02  0.77504178034E+02  0.00000000000E+00 0.  1.
<mgrwt>
<rscale>  2 0.24468098E+02</rscale>
<asrwt>0</asrwt>
<pdfrwt beam="1">  1       21 0.14346507E-01 0.24468098E+02</pdfrwt>
<pdfrwt beam="2">  1       21 0.16036286E-02 0.24468098E+02</pdfrwt>
<totfact> 0.54250558E+07</totfact>
</mgrwt>
</event>
<event>
 4    1  0.7424968E+004  0.2731156E+02  0.7546771E-02  0.1629860E+00
         21   -1    0    0  501  502  0.00000000000E+00  0.00000000000E+00  0.51748687368E+02  0.51748687368E+02  0.00000000000E+00 0.  1.
         21   -1    0    0  502  503 -0.00000000000E+00 -0.00000000000E+00 -0.22795006161E+02  0.22795006161E+02  0.00000000000E+00 0.  1.
          1    1    1    2  501    0  0.26268902380E+02 -0.74743510578E+01  0.37076470975E+02  0.46049819282E+02  0.00000000000E+00 0.  1.
         -1    1    1    2    0  503 -0.26268902380E+02  0.74743510578E+01 -0.81227897676E+01  0.28493874247E+02  0.00000000000E+00 0. -1.
<mgrwt>
<rscale>  2 0.27311557E+02</rscale>
<asrwt>0</asrwt>
<pdfrwt beam="1">  1       21 0.79613365E-02 0.27311557E+02</pdfrwt>
<pdfrwt beam="2">  1       21 0.35069240E-02 0.27311557E+02</pdfrwt>
<totfact> 0.44238213E+07</totfact>
</mgrwt>
</event>
<event>
 4    1  0.7424968E+004  0.2169753E+02  0.7546771E-02  0.1713536E+00
         21   -1    0    0  503  502  0.00000000000E+00  0.00000000000E+00  0.20162027378E+02  0.20162027378E+02  0.00000000000E+00 0. -1.
         21   -1    0    0  501  503 -0.00000000000E+00 -0.00000000000E+00 -0.23833729296E+02  0.23833729296E+02  0.00000000000E+00 0. -1.
          3    1    1    2  501    0  0.62176891930E+01  0.20787575922E+02  0.12981142835E+01  0.21736330700E+02  0.00000000000E+00 0. -1.
         -3    1    1    2    0  502 -0.62176891930E+01 -0.20787575922E+02 -0.49698162017E+01  0.22259425974E+02  0.00000000000E+00 0.  1.
<mgrwt>
<rscale>  2 0.21697534E+02</rscale>
<asrwt>0</asrwt>
<pdfrwt beam="1">  1       21 0.31018504E-02 0.21697534E+02</pdfrwt>
<pdfrwt beam="2">  1       21 0.36667276E-02 0.21697534E+02</pdfrwt>
<totfact> 0.17444135E+08</totfact>
</mgrwt>
</event>
<event>
 4    1  0.7424968E+004  0.4297839E+02  0.7546771E-02  0.1487372E+00
         21   -1    0    0  503  502  0.00000000000E+00  0.00000000000E+00  0.11857215544E+02  0.11857215544E+02  0.00000000000E+00 0. -1.
         21   -1    0    0  501  503 -0.00000000000E+00 -0.00000000000E+00 -0.19263148334E+03  0.19263148334E+03  0.00000000000E+00 0. -1.
          5    1    1    2  501    0  0.16021529749E+01  0.42948519655E+02 -0.13510598591E+03  0.14177718315E+03  0.00000000000E+00 0. -1.
         -5    1    1    2    0  502 -0.16021529749E+01 -0.42948519655E+02 -0.45668281887E+02  0.62711515731E+02  0.00000000000E+00 0.  1.
<mgrwt>
<rscale>  2 0.42978393E+02</rscale>
<asrwt>0</asrwt>
<pdfrwt beam="1">  1       21 0.18241869E-02 0.42978393E+02</pdfrwt>
<pdfrwt beam="2">  1       21 0.29635615E-01 0.42978393E+02</pdfrwt>
<totfact> 0.13622782E+07</totfact>
</mgrwt>
</event>
<event>
 4    1  0.7424968E+004  0.1084533E+03  0.7546771E-02  0.1263461E+00
         21   -1    0    0  503  502  0.00000000000E+00  0.00000000000E+00  0.22119476207E+02  0.22119476207E+02  0.00000000000E+00 0.  1.
         21   -1    0    0  501  503 -0.00000000000E+00 -0.00000000000E+00 -0.53636676037E+03  0.53636676037E+03  0.00000000000E+00 0.  1.
          4    1    1    2  501    0 -0.39905767268E+02 -0.10084466764E+03 -0.28301994345E+03  0.30308811531E+03  0.00000000000E+00 0.  1.
         -4    1    1    2    0  502  0.39905767268E+02  0.10084466764E+03 -0.23122734072E+03  0.25539812127E+03  0.00000000000E+00 0. -1.
<mgrwt>
<rscale>  2 0.10845330E+03</rscale>
<asrwt>0</asrwt>
<pdfrwt beam="1">  1       21 0.34029962E-02 0.10845330E+03</pdfrwt>
<pdfrwt beam="2">  1       21 0.82517966E-01 0.10845330E+03</pdfrwt>
<totfact> 0.66414143E+05</totfact>
</mgrwt>
</event>
<event>
 4    1  0.7424968E+004  0.4773721E+02  0.7546771E-02  0.1457943E+00
         21   -1    0    0  501  502  0.00000000000E+00  0.00000000000E+00  0.70079379623E+02  0.70079379623E+02  0.00000000000E+00 0.  1.
         21   -1    0    0  502  503 -0.00000000000E+00 -0.00000000000E+00 -0.33990038031E+02  0.33990038031E+02  0.00000000000E+00 0.  1.
          5    1    1    2  501    0  0.44296290268E+02  0.17795505393E+02  0.28873379131E+02  0.55789903801E+02  0.00000000000E+00 0.  1.
         -5    1    1    2    0  503 -0.44296290268E+02 -0.17795505393E+02  0.72159624609E+01  0.48279513853E+02  0.00000000000E+00 0. -1.
<mgrwt>
<rscale>  2 0.47737211E+02</rscale>
<asrwt>0</asrwt>
<pdfrwt beam="1">  1       21 0.10781443E-01 0.47737211E+02</pdfrwt>
<pdfrwt beam="2">  1       21 0.52292367E-02 0.47737211E+02</pdfrwt>
<totfact> 0.15495146E+07</totfact>
</mgrwt>
</event>
<event>
 4    1  0.7424968E+004  0.2136927E+02  0.7546771E-02  0.1719394E+00
         21   -1    0    0  503  502  0.00000000000E+00  0.00000000000E+00  0.10551878222E+02  0.10551878222E+02  0.00000000000E+00 0. -1.
         21   -1    0    0  501  503 -0.00000000000E+00 -0.00000000000E+00 -0.61740842042E+02  0.61740842042E+02  0.00000000000E+00 0. -1.
          3    1    1    2  501    0  0.21366164336E+02 -0.36426009860E+00 -0.58271425617E+01  0.22149520408E+02  0.00000000000E+00 0. -1.
         -3    1    1    2    0  502 -0.21366164336E+02  0.36426009860E+00 -0.45361821258E+02  0.50143199855E+02  0.00000000000E+00 0.  1.
<mgrwt>
<rscale>  2 0.21369269E+02</rscale>
<asrwt>0</asrwt>
<pdfrwt beam="1">  1       21 0.16233659E-02 0.21369269E+02</pdfrwt>
<pdfrwt beam="2">  1       21 0.94985911E-02 0.21369269E+02</pdfrwt>
<totfact> 0.10223113E+08</totfact>
</mgrwt>
</event>
<event>
 4    1  0.7424968E+004  0.3141493E+02  0.7546771E-02  0.1582955E+00
         21   -1    0    0  503  502  0.00000000000E+00  0.00000000000E+00  0.81307454884E+01  0.81307454884E+01  0.00000000000E+00 0.  1.
         21   -1    0    0  501  503 -0.00000000000E+00 -0.00000000000E+00 -0.12162672555E+03  0.12162672555E+03  0.00000000000E+00 0.  1.
          2    1    1    2  501    0 -0.30770763576E+02 -0.63291145298E+01 -0.53816942298E+02  0.62315013120E+02  0.00000000000E+00 0.  1.
         -2    1    1    2    0  502  0.30770763576E+02  0.63291145298E+01 -0.59679037764E+02  0.67442457920E+02  0.00000000000E+00 0. -1.
<mgrwt>
<rscale>  2 0.31414926E+02</rscale>
<asrwt>0</asrwt>
<pdfrwt beam="1">  1       21 0.12508841E-02 0.31414926E+02</pdfrwt>
<pdfrwt beam="2">  1       21 0.18711801E-01 0.31414926E+02</pdfrwt>
<totfact> 0.53038521E+07</totfact>
</mgrwt>
</event>
<event>
 4    1  0.7424968E+004  0.2011957E+02  0.7546771E-02  0.1742961E+00
         21   -1    0    0  501  502  0.00000000000E+00  0.00000000000E+00  0.35658627017E+01  0.35658627017E+01  0.00000000000E+00 0.  1.
         21   -1    0    0  502  503 -0.00000000000E+00 -0.00000000000E+00 -0.11436438676E+03  0.11436438676E+03  0.00000000000E+00 0.  1.
          1    1    1    2  501    0 -0.49798916805E+01 -0.19493536201E+02 -0.60465452512E+02  0.63724941916E+02  0.00000000000E+00 0.  1.
         -1    1    1    2    0  503  0.49798916805E+01  0.19493536201E+02 -0.50333071541E+02  0.54205307540E+02  0.00000000000E+00 0. -1.
<mgrwt>
<rscale>  2 0.20119574E+02</rscale>
<asrwt>0</asrwt>
<pdfrwt beam="1">  1       21 0.54859416E-03 0.20119574E+02</pdfrwt>
<pdfrwt beam="2">  1       21 0.17594524E-01 0.20119574E+02</pdfrwt>
<totfact> 0.18064327E+08</totfact>
</mgrwt>
</event>
<event>
 4    1  0.7424968E+004  0.2145634E+02  0.7546771E-02  0.1717827E+00
         21   -1    0    0  501  502  0.00000000000E+00  0.00000000000E+00  0.11174380287E+03  0.11174380287E+03  0.00000000000E+00 0.  1.
         21   -1    0    0  502  503 -0.00000000000E+00 -0.00000000000E+00 -0.41205344109E+01  0.41205344109E+01  0.00000000000E+00 0.  1.
          1    1    1    2  501    0  0.21012658035E+02  0.43408325918E+01  0.53099584993E+02  0.57270765245E+02  0.00000000000E+00 0. -1.
         -1    1    1    2    0  503 -0.21012658035E+02 -0.43408325918E+01  0.54523683468E+02  0.58593572038E+02  0.00000000000E+00 0.  1.
<mgrwt>
<rscale>  2 0.21456342E+02</rscale>
<asrwt>0</asrwt>
<pdfrwt beam="1">  1       21 0.17191352E-01 0.21456342E+02</pdfrwt>
<pdfrwt beam="2">  1       21 0.63392846E-03 0.21456342E+02</pdfrwt>
<totfact> 0.15487171E+08</totfact>
</mgrwt>
</event>
<event>
 4    1  0.7424968E+004  0.4979710E+02  0.7546771E-02  0.1446439E+00
         21   -1    0    0  503  502  0.00000000000E+00  0.00000000000E+00  0.25866585235E+02  0.25866585235E+02  0.00000000000E+00 0. -1.
         21   -1    0    0  501  503 -0.00000000000E+00 -0.00000000000E+00 -0.10492482608E+03  0.10492482608E+03  0.00000000000E+00 0. -1.
          5    1    1    2  501    0 -0.25347688665E+02  0.42863102352E+02 -0.20314886428E+02  0.53781460323E+02  0.00000000000E+00 0. -1.
         -5    1    1    2    0  502  0.25347688665E+02 -0.42863102352E+02 -0.58743354420E+02  0.77009950996E+02  0.00000000000E+00 0.  1.
<mgrwt>
<rscale>  2 0.49797097E+02</rscale>
<asrwt>0</asrwt>
<pdfrwt beam="1">  1       21 0.39794747E-02 0.49797097E+02</pdfrwt>
<pdfrwt beam="2">  1       21 0.16142281E-01 0.49797097E+02</pdfrwt>
<totfact> 0.12067786E+07</totfact>
</mgrwt>
</event>
<event>
 4    1  0.7424968E+004  0.2251478E+02  0.7546771E-02  0.1699498E+00
         21   -1    0    0  503  502  0.00000000000E+00  0.00000000000E+00  0.36370350774E+01  0.36370350774E+01  0.00000000000E+00 0. -1.
         21   -1    0    0  501  503 -0.00000000000E+00 -0.00000000000E+00 -0.19783914639E+03  0.19783914639E+03  0.00000000000E+00 0. -1.
          5    1    1    2  501    0  0.83797612689E+01  0.20897248274E+02 -0.15186298115E+03  0.15352289871E+03  0.00000000000E+00 0. -1.
         -5    1    1    2    0  502 -0.83797612689E+01 -0.20897248274E+02 -0.42339130159E+02  0.47953282755E+02  0.00000000000E+00 0.  1.
<mgrwt>
<rscale>  2 0.22514781E+02</rscale>
<asrwt>0</asrwt>
<pdfrwt beam="1">  1       21 0.55954356E-03 0.22514781E+02</pdfrwt>
<pdfrwt beam="2">  1       21 0.30436808E-01 0.22514781E+02</pdfrwt>
<totfact> 0.68872942E+07</totfact>
</mgrwt>
</event>
<event>
 4    1  0.7424968E+004  0.2077420E+02  0.7546771E-02  0.1730356E+00
         21   -1    0    0  503  502  0.00000000000E+00  0.00000000000E+00  0.67056918310E+00  0.67056918310E+00  0.00000000000E+00 0. -1.
         21   -1    0    0  501  503 -0.00000000000E+00 -0.00000000000E+00 -0.69486569918E+03  0.69486569918E+03  0.00000000000E+00 0. -1.
          1    1    1    2  501    0  0.19576847314E+02 -0.69508591684E+01 -0.44157363839E+03  0.44206203808E+03  0.00000000000E+00 0.  1.
         -1    1    1    2    0  502 -0.19576847314E+02  0.69508591684E+01 -0.25262149161E+03  0.25347423028E+03  0.00000000000E+00 0. -1.
<mgrwt>
<rscale>  2 0.20774200E+02</rscale>
<asrwt>0</asrwt>
<pdfrwt beam="1">  1       21 0.10316467E-03 0.20774200E+02</pdfrwt>
<pdfrwt beam="2">  1       21 0.10690223E+00 0.20774200E+02</pdfrwt>
<totfact> 0.64108928E+07</totfact>
</mgrwt>
</event>
<event>
 4    1  0.7424968E+004  0.2452285E+02  0.7546771E-02  0.1667951E+00
         21   -1    0    0  503  502  0.00000000000E+00  0.00000000000E+00  0.13846743551E+02  0.13846743551E+02  0.00000000000E+00 0. -1.
         21   -1    0    0  501  503 -0.00000000000E+00 -0.00000000000E+00 -0.51009502744E+02  0.51009502744E+02  0.00000000000E+00 0. -1.
          3    1    1    2  501    0 -0.23261018660E+02 -0.77649950577E+01 -0.60815504464E+01  0.25265695977E+02  0.00000000000E+00 0. -1.
         -3    1    1    2    0  502  0.23261018660E+02  0.77649950577E+01 -0.31081208747E+02  0.39590550319E+02  0.00000000000E+00 0.  1.
<mgrwt>
<rscale>  2 0.24522849E+02</rscale>
<asrwt>0</asrwt>
<pdfrwt beam="1">  1       21 0.21302682E-02 0.24522849E+02</pdfrwt>
<pdfrwt beam="2">  1       21 0.78476159E-02 0.24522849E+02</pdfrwt>
<totfact> 0.95924875E+07</totfact>
</mgrwt>
</event>
<event>
 4    1  0.7424968E+004  0.2676555E+02  0.7546771E-02  0.1636865E+00
         21   -1    0    0  503  502  0.00000000000E+00  0.00000000000E+00  0.39767942215E+03  0.39767942215E+03  0.00000000000E+00 0. -1.
         21   -1    0    0  501  503 -0.00000000000E+00 -0.00000000000E+00 -0.22244801458E+01  0.22244801458E+01  0.00000000000E+00 0. -1.
          4    1    1    2  501    0 -0.12706194385E+02  0.23557316172E+02  0.11053006063E+03  0.11372461837E+03  0.00000000000E+00 0. -1.
         -4    1    1    2    0  502  0.12706194385E+02 -0.23557316172E+02  0.28492488138E+03  0.28617928393E+03  0.00000000000E+00 0.  1.
<mgrwt>
<rscale>  2 0.26765547E+02</rscale>
<asrwt>0</asrwt>
<pdfrwt beam="1">  1       21 0.61181393E-01 0.26765547E+02</pdfrwt>
<pdfrwt beam="2">  1       21 0.34222803E-03 0.26765547E+02</pdfrwt>
<totfact> 0.38912631E+07</totfact>
</mgrwt>
</event>
<event>
 4    1  0.7424968E+004  0.2961757E+02  0.7546771E-02  0.1602355E+00
         21   -1    0    0  503  502  0.00000000000E+00  0.00000000000E+00  0.12793444742E+02  0.12793444742E+02  0.00000000000E+00 0.  1.
         21   -1    0    0  501  503 -0.00000000000E+00 -0.00000000000E+00 -0.76673942878E+02  0.76673942878E+02  0.00000000000E+00 0.  1.
          4    1    1    2  501    0 -0.29595234779E+02 -0.11500175607E+01 -0.46486646979E+02  0.55119949286E+02  0.00000000000E+00 0.  1.
         -4    1    1    2    0  502  0.29595234779E+02  0.11500175607E+01 -0.17393851158E+02  0.34347438334E+02  0.00000000000E+00 0. -1.
<mgrwt>
<rscale>  2 0.29617570E+02</rscale>
<asrwt>0</asrwt>
<pdfrwt beam="1">  1       21 0.19682222E-02 0.29617570E+02</pdfrwt>
<pdfrwt beam="2">  1       21 0.11795991E-01 0.29617570E+02</pdfrwt>
<totfact> 0.57730657E+07</totfact>
</mgrwt>
</event>
<event>
 4    1  0.7424968E+004  0.3236051E+02  0.7546771E-02  0.1573372E+00
         21   -1    0    0  501  502  0.00000000000E+00  0.00000000000E+00  0.39719296222E+02  0.39719296222E+02  0.00000000000E+00 0. -1.
         21   -1    0    0  502  503 -0.00000000000E+00 -0.00000000000E+00 -0.30473356658E+02  0.30473356658E+02  0.00000000000E+00 0. -1.
          2    1    1    2  501    0  0.28244272564E+02  0.15794410030E+02  0.17509366275E+02  0.36793752571E+02  0.00000000000E+00 0.  1.
         -2    1    1    2    0  503 -0.28244272564E+02 -0.15794410030E+02 -0.82634267112E+01  0.33398900310E+02  0.00000000000E+00 0. -1.
<mgrwt>
<rscale>  2 0.32360506E+02</rscale>
<asrwt>0</asrwt>
<pdfrwt beam="1">  1       21 0.61106610E-02 0.32360506E+02</pdfrwt>
<pdfrwt beam="2">  1       21 0.46882087E-02 0.32360506E+02</pdfrwt>
<totfact> 0.44581651E+07</totfact>
</mgrwt>
</event>
<event>
 4    1  0.7424968E+004  0.5804285E+02  0.7546771E-02  0.1406233E+00
         21   -1    0    0  501  502  0.00000000000E+00  0.00000000000E+00  0.41232680453E+01  0.41232680453E+01  0.00000000000E+00 0.  1.
         21   -1    0    0  502  503 -0.00000000000E+00 -0.00000000000E+00 -0.81983455239E+03  0.81983455239E+03  0.00000000000E+00 0.  1.
          4    1    1    2  501    0 -0.57574820538E+02  0.73561339450E+01 -0.38390494471E+03  0.38826792198E+03  0.00000000000E+00 0. -1.
         -4    1    1    2    0  503  0.57574820538E+02 -0.73561339450E+01 -0.43180633963E+03  0.43568989845E+03  0.00000000000E+00 0.  1.
<mgrwt>
<rscale>  2 0.58042852E+02</rscale>
<asrwt>0</asrwt>
<pdfrwt beam="1">  1       21 0.63434959E-03 0.58042852E+02</pdfrwt>
<pdfrwt beam="2">  1       21 0.12612826E+00 0.58042852E+02</pdfrwt>
<totfact> 0.34853074E+06</totfact>
</mgrwt>
</event>
<event>
 4    1  0.7424968E+004  0.2173763E+02  0.7546771E-02  0.1712829E+00
         21   -1    0    0  501  502  0.00000000000E+00  0.00000000000E+00  0.17592367006E+02  0.17592367006E+02  0.00000000000E+00 0.  1.
         21   -1    0    0  502  503 -0.00000000000E+00 -0.00000000000E+00 -0.28512998010E+02  0.28512998010E+02  0.00000000000E+00 0.  1.
          5    1    1    2  501    0 -0.21343732908E+02  0.41194219582E+01 -0.11011479047E+02  0.24367544861E+02  0.00000000000E+00 0. -1.
         -5    1    1    2    0  503  0.21343732908E+02 -0.41194219582E+01  0.90848043703E-01  0.21737820155E+02  0.00000000000E+00 0.  1.
<mgrwt>
<rscale>  2 0.21737630E+02</rscale>
<asrwt>0</asrwt>
<pdfrwt beam="1">  1       21 0.27065180E-02 0.21737630E+02</pdfrwt>
<pdfrwt beam="2">  1       21 0.43866151E-02 0.21737630E+02</pdfrwt>
<totfact> 0.16268999E+08</totfact>
</mgrwt>
</event>
<event>
 4    1  0.7424968E+004  0.2706905E+02  0.7546771E-02  0.1632947E+00
         21   -1    0    0  501  502  0.00000000000E+00  0.00000000000E+00  0.35811629025E+01  0.35811629025E+01  0.00000000000E+00 0. -1.
         21   -1    0    0  502  503 -0.00000000000E+00 -0.00000000000E+00 -0.23176822588E+03  0.23176822588E+03  0.00000000000E+00 0. -1.
          4    1    1    2  501    0  0.23319935677E+02 -0.13744598420E+02 -0.73810190363E+02  0.78617285549E+02  0.00000000000E+00 0.  1.
         -4    1    1    2    0  503 -0.23319935677E+02  0.13744598420E+02 -0.15437687262E+03  0.15673210324E+03  0.00000000000E+00 0. -1.
<mgrwt>
<rscale>  2 0.27069048E+02</rscale>
<asrwt>0</asrwt>
<pdfrwt beam="1">  1       21 0.55094804E-03 0.27069048E+02</pdfrwt>
<pdfrwt beam="2">  1       21 0.35656657E-01 0.27069048E+02</pdfrwt>
<totfact> 0.55003979E+07</totfact>
</mgrwt>
</event>
<event>
 4    1  0.7424968E+004  0.2384667E+02  0.7546771E-02  0.1678142E+00
         21   -1    0    0  503  502  0.00000000000E+00  0.00000000000E+00  0.19601128966E+02  0.19601128966E+02  0.00000000000E+00 0. -1.
         21   -1    0    0  501  503 -0.00000000000E+00 -0.00000000000E+00 -0.29512937024E+02  0.29512937024E+02  0.00000000000E+00 0. -1.
          3    1    1    2  501    0  0.11550587815E+02 -0.20862593187E+02 -0.17558931179E+01  0.23911232382E+02  0.00000000000E+00 0. -1.
         -3    1    1    2    0  502 -0.11550587815E+02  0.20862593187E+02 -0.81559149404E+01  0.25202833608E+02  0.00000000000E+00 0.  1.
<mgrwt>
<rscale>  2 0.23846674E+02</rscale>
<asrwt>0</asrwt>
<pdfrwt beam="1">  1       21 0.30155583E-02 0.23846674E+02</pdfrwt>
<pdfrwt beam="2">  1       21 0.45404518E-02 0.23846674E+02</pdfrwt>
<totfact> 0.13395471E+08</totfact>
</mgrwt>
</event>
<event>
 4    1  0.7424968E+004  0.2447206E+02  0.7546771E-02  0.1668703E+00
         21   -1    0    0  503  502  0.00000000000E+00  0.00000000000E+00  0.25073498332E+02  0.25073498332E+02  0.00000000000E+00 0.  1.
         21   -1    0    0  501  503 -0.00000000000E+00 -0.00000000000E+00 -0.28569903440E+02  0.28569903440E+02  0.00000000000E+00 0.  1.
          5    1    1    2  501    0  0.88911239098E+01  0.22799772615E+02  0.91130526325E+01  0.26113778814E+02  0.00000000000E+00 0.  1.
         -5    1    1    2    0  502 -0.88911239098E+01 -0.22799772615E+02 -0.12609457741E+02  0.27529622958E+02  0.00000000000E+00 0. -1.
<mgrwt>
<rscale>  2 0.24472060E+02</rscale>
<asrwt>0</asrwt>
<pdfrwt beam="1">  1       21 0.38574613E-02 0.24472060E+02</pdfrwt>
<pdfrwt beam="2">  1       21 0.43953698E-02 0.24472060E+02</pdfrwt>
<totfact> 0.96580380E+07</totfact>
</mgrwt>
</event>
<event>
 4    1  0.7424968E+004  0.2533615E+02  0.7546771E-02  0.1656220E+00
         21   -1    0    0  501  502  0.00000000000E+00  0.00000000000E+00  0.11071317861E+01  0.11071317861E+01  0.00000000000E+00 0.  1.
         21   -1    0    0  502  503 -0.00000000000E+00 -0.00000000000E+00 -0.86423094140E+03  0.86423094140E+03  0.00000000000E+00 0.  1.
          4    1    1    2  501    0 -0.19826732933E+02 -0.15774064363E+02 -0.67977550974E+03  0.68024750209E+03  0.00000000000E+00 0. -1.
         -4    1    1    2    0  503  0.19826732933E+02  0.15774064363E+02 -0.18334829987E+03  0.18509057110E+03  0.00000000000E+00 0.  1.
<mgrwt>
<rscale>  2 0.25336149E+02</rscale>
<asrwt>0</asrwt>
<pdfrwt beam="1">  1       21 0.17032802E-03 0.25336149E+02</pdfrwt>
<pdfrwt beam="2">  1       21 0.13295857E+00 0.25336149E+02</pdfrwt>
<totfact> 0.19874768E+07</totfact>
</mgrwt>
</event>
<event>
 4    1  0.7424968E+004  0.2443485E+02  0.7546771E-02  0.1669254E+00
         21   -1    0    0  501  502  0.00000000000E+00  0.00000000000E+00  0.14670722367E+03  0.14670722367E+03  0.00000000000E+00 0. -1.
         21   -1    0    0  502  503 -0.00000000000E+00 -0.00000000000E+00 -0.41354892302E+01  0.41354892302E+01  0.00000000000E+00 0. -1.
          2    1    1    2  501    0  0.13405379301E+02 -0.20429339561E+02  0.80794860002E+02  0.84408953979E+02  0.00000000000E+00 0. -1.
         -2    1    1    2    0  503 -0.13405379301E+02  0.20429339561E+02  0.61776874442E+02  0.66433758925E+02  0.00000000000E+00 0.  1.
<mgrwt>
<rscale>  2 0.24434854E+02</rscale>
<asrwt>0</asrwt>
<pdfrwt beam="1">  1       21 0.22570338E-01 0.24434854E+02</pdfrwt>
<pdfrwt beam="2">  1       21 0.63622923E-03 0.24434854E+02</pdfrwt>
<totfact> 0.99472173E+07</totfact>
</mgrwt>
</event>
<event>
 4    1  0.7424968E+004  0.3385578E+02  0.7546771E-02  0.1559003E+00
         21   -1    0    0  503  502  0.00000000000E+00  0.00000000000E+00  0.38058377963E+03  0.38058377963E+03  0.00000000000E+00 0. -1.
         21   -1    0    0  501  503 -0.00000000000E+00 -0.00000000000E+00 -0.30776225421E+01  0.30776225421E+01  0.00000000000E+00 0. -1.
          2    1    1    2  501    0  0.52365920476E+01  0.33448350597E+02  0.16068311560E+03  0.16421107664E+03  0.00000000000E+00 0. -1.
         -2    1    1    2    0  502 -0.52365920476E+01 -0.33448350597E+02  0.21682304149E+03  0.21945032553E+03  0.00000000000E+00 0.  1.
<mgrwt>
<rscale>  2 0.33855783E+02</rscale>
<asrwt>0</asrwt>
<pdfrwt beam="1">  1       21 0.58551314E-01 0.33855783E+02</pdfrwt>
<pdfrwt beam="2">  1       21 0.47348069E-03 0.33855783E+02</pdfrwt>
<totfact> 0.27473464E+07</totfact>
</mgrwt>
</event>
<event>
 4    1  0.7424968E+004  0.2090167E+02  0.7546771E-02  0.1727970E+00
         21   -1    0    0  501  502  0.00000000000E+00  0.00000000000E+00  0.17275612592E+02  0.17275612592E+02  0.00000000000E+00 0. -1.
         21   -1    0    0  502  503 -0.00000000000E+00 -0.00000000000E+00 -0.34263512925E+02  0.34263512925E+02  0.00000000000E+00 0. -1.
          1    1    1    2  501    0 -0.55191228660E+01  0.20159833522E+02  0.46947276265E+01  0.21422419852E+02  0.00000000000E+00 0. -1.
         -1    1    1    2    0  503  0.55191228660E+01 -0.20159833522E+02 -0.21682627960E+02  0.30116705664E+02  0.00000000000E+00 0.  1.
<mgrwt>
<rscale>  2 0.20901665E+02</rscale>
<asrwt>0</asrwt>
<pdfrwt beam="1">  1       21 0.26577866E-02 0.20901665E+02</pdfrwt>
<pdfrwt beam="2">  1       21 0.52713096E-02 0.20901665E+02</pdfrwt>
<totfact> 0.12357533E+08</totfact>
</mgrwt>
</event>
<event>
 4    1  0.7424968E+004  0.2098825E+02  0.7546771E-02  0.1726361E+00
         21   -1    0    0  503  502  0.00000000000E+00  0.00000000000E+00  0.21568579461E+02  0.21568579461E+02  0.00000000000E+00 0.  1.
         21   -1    0    0  501  503 -0.00000000000E+00 -0.00000000000E+00 -0.21214600698E+02  0.21214600698E+02  0.00000000000E+00 0.  1.
          4    1    1    2  501    0 -0.44592803843E+01 -0.20509061637E+02  0.43077493842E+01  0.21425767093E+02  0.00000000000E+00 0.  1.
         -4    1    1    2    0  502  0.44592803843E+01  0.20509061637E+02 -0.39537706219E+01  0.21357413066E+02  0.00000000000E+00 0. -1.
<mgrwt>
<rscale>  2 0.20988254E+02</rscale>
<asrwt>0</asrwt>
<pdfrwt beam="1">  1       21 0.33182430E-02 0.20988254E+02</pdfrwt>
<pdfrwt beam="2">  1       21 0.32637847E-02 0.20988254E+02</pdfrwt>
<totfact> 0.18639428E+08</totfact>
</mgrwt>
</event>
<event>
 4    1  0.7424968E+004  0.3825844E+02  0.7546771E-02  0.1521433E+00
         21   -1    0    0  503  502  0.00000000000E+00  0.00000000000E+00  0.57430382707E+01  0.57430382707E+01  0.00000000000E+00 0. -1.
         21   -1    0    0  501  503 -0.00000000000E+00 -0.00000000000E+00 -0.27981282450E+03  0.27981282450E+03  0.00000000000E+00 0. -1.
          5    1    1    2  501    0  0.34667972331E+02  0.16181466071E+02 -0.17966637514E+03  0.18369462297E+03  0.00000000000E+00 0.  1.
         -5    1    1    2    0  502 -0.34667972331E+02 -0.16181466071E+02 -0.94403411089E+02  0.10186123981E+03  0.00000000000E+00 0. -1.
<mgrwt>
<rscale>  2 0.38258439E+02</rscale>
<asrwt>0</asrwt>
<pdfrwt beam="1">  1       21 0.88354455E-03 0.38258439E+02</pdfrwt>
<pdfrwt beam="2">  1       21 0.43048117E-01 0.38258439E+02</pdfrwt>
<totfact> 0.20138581E+07</totfact>
</mgrwt>
</event>
<event>
 4    1  0.7424968E+004  0.2016675E+02  0.7546771E-02  0.1742032E+00
         21   -1    0    0  501  502  0.00000000000E+00  0.00000000000E+00  0.13643286393E+01  0.13643286393E+01  0.00000000000E+00 0. -1.
         21   -1    0    0  502  503 -0.00000000000E+00 -0.00000000000E+00 -0.33414284609E+03  0.33414284609E+03  0.00000000000E+00 0. -1.
          3    1    1    2  501    0 -0.20025082720E+02 -0.23861427001E+01 -0.22148955287E+03  0.22240575453E+03  0.00000000000E+00 0. -1.
         -3    1    1    2    0  503  0.20025082720E+02  0.23861427001E+01 -0.11128896457E+03  0.11310142020E+03  0.00000000000E+00 0.  1.
<mgrwt>
<rscale>  2 0.20166745E+02</rscale>
<asrwt>0</asrwt>
<pdfrwt beam="1">  1       21 0.20989649E-03 0.20166745E+02</pdfrwt>
<pdfrwt beam="2">  1       21 0.51406645E-01 0.20166745E+02</pdfrwt>
<totfact> 0.10446823E+08</totfact>
</mgrwt>
</event>
<event>
 4    1  0.7424968E+004  0.2022411E+02  0.7546771E-02  0.1740908E+00
         21   -1    0    0  501  502  0.00000000000E+00  0.00000000000E+00  0.90598401598E+00  0.90598401598E+00  0.00000000000E+00 0. -1.
         21   -1    0    0  502  503 -0.00000000000E+00 -0.00000000000E+00 -0.58719166849E+03  0.58719166849E+03  0.00000000000E+00 0. -1.
          3    1    1    2  501    0  0.16265925420E+02 -0.12018080375E+02 -0.15176811057E+03  0.15310967955E+03  0.00000000000E+00 0. -1.
         -3    1    1    2    0  503 -0.16265925420E+02  0.12018080375E+02 -0.43451757390E+03  0.43498797296E+03  0.00000000000E+00 0.  1.
<mgrwt>
<rscale>  2 0.20224109E+02</rscale>
<asrwt>0</asrwt>
<pdfrwt beam="1">  1       21 0.13938207E-03 0.20224109E+02</pdfrwt>
<pdfrwt beam="2">  1       21 0.90337239E-01 0.20224109E+02</pdfrwt>
<totfact> 0.59800121E+07</totfact>
</mgrwt>
</event>
<event>
 4    1  0.7424968E+004  0.2413403E+02  0.7546771E-02  0.1673761E+00
         21   -1    0    0  501  502  0.00000000000E+00  0.00000000000E+00  0.15832783127E+03  0.15832783127E+03  0.00000000000E+00 0.  1.
         21   -1    0    0  502  503 -0.00000000000E+00 -0.00000000000E+00 -0.44471160762E+01  0.44471160762E+01  0.00000000000E+00 0.  1.
          1    1    1    2  501    0  0.11957160241E+01 -0.24104392697E+02  0.43110737838E+02  0.49406347781E+02  0.00000000000E+00 0.  1.
         -1    1    1    2    0  503 -0.11957160241E+01  0.24104392697E+02  0.11076997736E+03  0.11336859957E+03  0.00000000000E+00 0. -1.
<mgrwt>
<rscale>  2 0.24134032E+02</rscale>
<asrwt>0</asrwt>
<pdfrwt beam="1">  1       21 0.24358124E-01 0.24134032E+02</pdfrwt>
<pdfrwt beam="2">  1       21 0.68417182E-03 0.24134032E+02</pdfrwt>
<totfact> 0.77722164E+07</totfact>
</mgrwt>
</event>
<event>
 4    1  0.7424968E+004  0.3669096E+02  0.7546771E-02  0.1534077E+00
         21   -1    0    0  501  502  0.00000000000E+00  0.00000000000E+00  0.19045854907E+02  0.19045854907E+02  0.00000000000E+00 0.  1.
         21   -1    0    0  502  503 -0.00000000000E+00 -0.00000000000E+00 -0.74192934383E+02  0.74192934383E+02  0.00000000000E+00 0.  1.
          3    1    1    2  501    0 -0.21245836588E+02 -0.29913898307E+02 -0.17434273625E+02  0.40622417224E+02  0.00000000000E+00 0.  1.
         -3    1    1    2    0  503  0.21245836588E+02  0.29913898307E+02 -0.37712805851E+02  0.52616372066E+02  0.00000000000E+00 0. -1.
<mgrwt>
<rscale>  2 0.36690965E+02</rscale>
<asrwt>0</asrwt>
<pdfrwt beam="1">  1       21 0.29301315E-02 0.36690965E+02</pdfrwt>
<pdfrwt beam="2">  1       21 0.11414298E-01 0.36690965E+02</pdfrwt>
<totfact> 0.34224998E+07</totfact>
</mgrwt>
</event>
<event>
 4    1  0.7424968E+004  0.2216806E+02  0.7546771E-02  0.1705362E+00
         21   -1    0    0  501  502  0.00000000000E+00  0.00000000000E+00  0.24548919927E+02  0.24548919927E+02  0.00000000000E+00 0.  1.
         21   -1    0    0  502  503 -0.00000000000E+00 -0.00000000000E+00 -0.21127886947E+02  0.21127886947E+02  0.00000000000E+00 0.  1.
          3    1    1    2  501    0 -0.17700829541E+02  0.13345543136E+02 -0.35237555069E+01  0.22446374783E+02  0.00000000000E+00 0.  1.
         -3    1    1    2    0  503  0.17700829541E+02 -0.13345543136E+02  0.69447884862E+01  0.23230432091E+02  0.00000000000E+00 0. -1.
<mgrwt>
<rscale>  2 0.22168060E+02</rscale>
<asrwt>0</asrwt>
<pdfrwt beam="1">  1       21 0.37767569E-02 0.22168060E+02</pdfrwt>
<pdfrwt beam="2">  1       21 0.32504441E-02 0.22168060E+02</pdfrwt>
<totfact> 0.15586787E+08</totfact>
</mgrwt>
</event>
<event>
 4    1  0.7424968E+004  0.2069971E+02  0.7546771E-02  0.1731761E+00
         21   -1    0    0  503  502  0.00000000000E+00  0.00000000000E+00  0.85210493935E+03  0.85210493935E+03  0.00000000000E+00 0. -1.
         21   -1    0    0  501  503 -0.00000000000E+00 -0.00000000000E+00 -0.52189770865E+00  0.52189770865E+00  0.00000000000E+00 0. -1.
          4    1    1    2  501    0  0.17946179819E+02  0.10315640726E+02  0.50724317050E+03  0.50766535418E+03  0.00000000000E+00 0. -1.
         -4    1    1    2    0  502 -0.17946179819E+02 -0.10315640726E+02  0.34433987114E+03  0.34496148288E+03  0.00000000000E+00 0.  1.
<mgrwt>
<rscale>  2 0.20699706E+02</rscale>
<asrwt>0</asrwt>
<pdfrwt beam="1">  1       21 0.13109195E+00 0.20699706E+02</pdfrwt>
<pdfrwt beam="2">  1       21 0.80292637E-04 0.20699706E+02</pdfrwt>
<totfact> 0.57770940E+07</totfact>
</mgrwt>
</event>
<event>
 4    1  0.7424968E+004  0.5252062E+02  0.7546771E-02  0.1432202E+00
         21   -1    0    0  503  502  0.00000000000E+00  0.00000000000E+00  0.11150248019E+03  0.11150248019E+03  0.00000000000E+00 0. -1.
         21   -1    0    0  501  503 -0.00000000000E+00 -0.00000000000E+00 -0.25507458678E+02  0.25507458678E+02  0.00000000000E+00 0. -1.
          2    1    1    2  501    0  0.46038539812E+02  0.25275843196E+02  0.54891057517E+02  0.75970017722E+02  0.00000000000E+00 0. -1.
         -2    1    1    2    0  502 -0.46038539812E+02 -0.25275843196E+02  0.31103963994E+02  0.61039921146E+02  0.00000000000E+00 0.  1.
<mgrwt>
<rscale>  2 0.52520619E+02</rscale>
<asrwt>0</asrwt>
<pdfrwt beam="1">  1       21 0.17154227E-01 0.52520619E+02</pdfrwt>
<pdfrwt beam="2">  1       21 0.39242245E-02 0.52520619E+02</pdfrwt>
<totfact> 0.11158000E+07</totfact>
</mgrwt>
</event>
<event>
 4    1  0.7424968E+004  0.2746353E+02  0.7546771E-02  0.1627946E+00
         21   -1    0    0  501  502  0.00000000000E+00  0.00000000000E+00  0.94697013039E+02  0.94697013039E+02  0.00000000000E+00 0. -1.
         21   -1    0    0  502  503 -0.00000000000E+00 -0.00000000000E+00 -0.13425514441E+02  0.13425514441E+02  0.00000000000E+00 0. -1.
          1    1    1    2  501    0  0.26291160776E+02 -0.79385514162E+01  0.75113919885E+02  0.79977163579E+02  0.00000000000E+00 0.  1.
         -1    1    1    2    0  503 -0.26291160776E+02  0.79385514162E+01  0.61575787126E+01  0.28145363901E+02  0.00000000000E+00 0. -1.
<mgrwt>
<rscale>  2 0.27463535E+02</rscale>
<asrwt>0</asrwt>
<pdfrwt beam="1">  1       21 0.14568771E-01 0.27463535E+02</pdfrwt>
<pdfrwt beam="2">  1       21 0.20654638E-02 0.27463535E+02</pdfrwt>
<totfact> 0.36786669E+07</totfact>
</mgrwt>
</event>
<event>
 4    1  0.7424968E+004  0.3455855E+02  0.7546771E-02  0.1552556E+00
         21   -1    0    0  503  502  0.00000000000E+00  0.00000000000E+00  0.48494326353E+02  0.48494326353E+02  0.00000000000E+00 0.  1.
         21   -1    0    0  501  503 -0.00000000000E+00 -0.00000000000E+00 -0.25947553156E+02  0.25947553156E+02  0.00000000000E+00 0.  1.
          4    1    1    2  501    0  0.24006279451E+02 -0.24859445568E+02  0.28780782046E+01  0.34678189416E+02  0.00000000000E+00 0.  1.
         -4    1    1    2    0  502 -0.24006279451E+02  0.24859445568E+02  0.19668694992E+02  0.39763690092E+02  0.00000000000E+00 0. -1.
<mgrwt>
<rscale>  2 0.34558552E+02</rscale>
<asrwt>0</asrwt>
<pdfrwt beam="1">  1       21 0.74606656E-02 0.34558552E+02</pdfrwt>
<pdfrwt beam="2">  1       21 0.39919313E-02 0.34558552E+02</pdfrwt>
<totfact> 0.42159707E+07</totfact>
</mgrwt>
</event>
<event>
 4    1  0.7424968E+004  0.2928916E+02  0.7546771E-02  0.1606082E+00
         21   -1    0    0  503  502  0.00000000000E+00  0.00000000000E+00  0.20836651934E+01  0.20836651934E+01  0.00000000000E+00 0. -1.
         21   -1    0    0  501  503 -0.00000000000E+00 -0.00000000000E+00 -0.46096436698E+03  0.46096436698E+03  0.00000000000E+00 0. -1.
          2    1    1    2  501    0 -0.95346037433E+01  0.27693788985E+02 -0.30512510321E+03  0.30652762229E+03  0.00000000000E+00 0. -1.
         -2    1    1    2    0  502  0.95346037433E+01 -0.27693788985E+02 -0.15375559857E+03  0.15652040988E+03  0.00000000000E+00 0.  1.
<mgrwt>
<rscale>  2 0.29289155E+02</rscale>
<asrwt>0</asrwt>
<pdfrwt beam="1">  1       21 0.32056377E-03 0.29289155E+02</pdfrwt>
<pdfrwt beam="2">  1       21 0.70917618E-01 0.29289155E+02</pdfrwt>
<totfact> 0.32223815E+07</totfact>
</mgrwt>
</event>
<event>
 4    1  0.7424968E+004  0.2026320E+02  0.7546771E-02  0.1740144E+00
         21   -1    0    0  501  502  0.00000000000E+00  0.00000000000E+00  0.27029970626E+02  0.27029970626E+02  0.00000000000E+00 0. -1.
         21   -1    0    0  502  503 -0.00000000000E+00 -0.00000000000E+00 -0.15470135318E+02  0.15470135318E+02  0.00000000000E+00 0. -1.
          2    1    1    2  501    0 -0.16738978418E+02  0.11419452527E+02  0.86371879230E+01  0.22027217476E+02  0.00000000000E+00 0. -1.
         -2    1    1    2    0  503  0.16738978418E+02 -0.11419452527E+02  0.29226473851E+01  0.20472888468E+02  0.00000000000E+00 0.  1.
<mgrwt>
<rscale>  2 0.20263200E+02</rscale>
<asrwt>0</asrwt>
<pdfrwt beam="1">  1       21 0.41584570E-02 0.20263200E+02</pdfrwt>
<pdfrwt beam="2">  1       21 0.23800208E-02 0.20263200E+02</pdfrwt>
<totfact> 0.21098826E+08</totfact>
</mgrwt>
</event>
<event>
 4    1  0.7424968E+004  0.2320651E+02  0.7546771E-02  0.1688184E+00
         21   -1    0    0  503  502  0.00000000000E+00  0.00000000000E+00  0.73640927719E+01  0.73640927719E+01  0.00000000000E+00 0. -1.
         21   -1    0    0  501  503 -0.00000000000E+00 -0.00000000000E+00 -0.88249938470E+02  0.88249938470E+02  0.00000000000E+00 0. -1.
          4    1    1    2  501    0  0.43529867247E+01  0.22794595003E+02 -0.60230737553E+02  0.64546756703E+02  0.00000000000E+00 0.  1.
         -4    1    1    2    0  502 -0.43529867247E+01 -0.22794595003E+02 -0.20655108146E+02  0.31067274539E+02  0.00000000000E+00 0. -1.
<mgrwt>
<rscale>  2 0.23206509E+02</rscale>
<asrwt>0</asrwt>
<pdfrwt beam="1">  1       21 0.11329374E-02 0.23206509E+02</pdfrwt>
<pdfrwt beam="2">  1       21 0.13576913E-01 0.23206509E+02</pdfrwt>
<totfact> 0.99488688E+07</totfact>
</mgrwt>
</event>
<event>
 4    1  0.7424968E+004  0.2139614E+02  0.7546771E-02  0.1718910E+00
         21   -1    0    0  501  502  0.00000000000E+00  0.00000000000E+00  0.21259747191E+01  0.21259747191E+01  0.00000000000E+00 0. -1.
         21   -1    0    0  502  503 -0.00000000000E+00 -0.00000000000E+00 -0.21553564128E+03  0.21553564128E+03  0.00000000000E+00 0. -1.
          4    1    1    2  501    0  0.21272785472E+02  0.22942401588E+01 -0.11003242692E+03  0.11209339818E+03  0.00000000000E+00 0.  1.
         -4    1    1    2    0  503 -0.21272785472E+02 -0.22942401588E+01 -0.10337723964E+03  0.10556821783E+03  0.00000000000E+00 0. -1.
<mgrwt>
<rscale>  2 0.21396143E+02</rscale>
<asrwt>0</asrwt>
<pdfrwt beam="1">  1       21 0.32707314E-03 0.21396143E+02</pdfrwt>
<pdfrwt beam="2">  1       21 0.33159318E-01 0.21396143E+02</pdfrwt>
<totfact> 0.12769795E+08</totfact>
</mgrwt>
</event>
<event>
 4    1  0.7424968E+004  0.2678580E+02  0.7546771E-02  0.1636602E+00
         21   -1    0    0  501  502  0.00000000000E+00  0.00000000000E+00  0.26242785518E+03  0.26242785518E+03  0.00000000000E+00 0.  1.
         21   -1    0    0  502  503 -0.00000000000E+00 -0.00000000000E+00 -0.28683498336E+01  0.28683498336E+01  0.00000000000E+00 0.  1.
          5    1    1    2  501    0 -0.69118178421E+01  0.25878679157E+02  0.15848718049E+03  0.16073476799E+03  0.00000000000E+00 0. -1.
         -5    1    1    2    0  503  0.69118178421E+01 -0.25878679157E+02  0.10107232485E+03  0.10456143702E+03  0.00000000000E+00 0.  1.
<mgrwt>
<rscale>  2 0.26785803E+02</rscale>
<asrwt>0</asrwt>
<pdfrwt beam="1">  1       21 0.40373497E-01 0.26785803E+02</pdfrwt>
<pdfrwt beam="2">  1       21 0.44128480E-03 0.26785803E+02</pdfrwt>
<totfact> 0.60339497E+07</totfact>
</mgrwt>
</event>
<event>
 4    1  0.7424968E+004  0.2167866E+02  0.7546771E-02  0.1713869E+00
         21   -1    0    0  503  502  0.00000000000E+00  0.00000000000E+00  0.10791826966E+01  0.10791826966E+01  0.00000000000E+00 0.  1.
         21   -1    0    0  501  503 -0.00000000000E+00 -0.00000000000E+00 -0.46680700678E+03  0.46680700678E+03  0.00000000000E+00 0.  1.
          4    1    1    2  501    0 -0.21251596179E+02  0.42818265338E+01 -0.29346617028E+03  0.29426579393E+03  0.00000000000E+00 0. -1.
         -4    1    1    2    0  502  0.21251596179E+02 -0.42818265338E+01 -0.17226165380E+03  0.17362039555E+03  0.00000000000E+00 0.  1.
<mgrwt>
<rscale>  2 0.21678662E+02</rscale>
<asrwt>0</asrwt>
<pdfrwt beam="1">  1       21 0.16602772E-03 0.21678662E+02</pdfrwt>
<pdfrwt beam="2">  1       21 0.71816631E-01 0.21678662E+02</pdfrwt>
<totfact> 0.76522574E+07</totfact>
</mgrwt>
</event>
<event>
 4    1  0.7424968E+004  0.2881481E+02  0.7546771E-02  0.1611571E+00
         21   -1    0    0  501  502  0.00000000000E+00  0.00000000000E+00  0.18382266720E+03  0.18382266720E+03  0.00000000000E+00 0.  1.
         21   -1    0    0  502  503 -0.00000000000E+00 -0.00000000000E+00 -0.45252154125E+01  0.45252154125E+01  0.00000000000E+00 0.  1.
          2    1    1    2  501    0 -0.24483074125E+02 -0.15194490796E+02  0.93705610884E+02  0.98035886186E+02  0.00000000000E+00 0. -1.
         -2    1    1    2    0  503  0.24483074125E+02  0.15194490796E+02  0.85591840899E+02  0.90311996421E+02  0.00000000000E+00 0.  1.
<mgrwt>
<rscale>  2 0.28814813E+02</rscale>
<asrwt>0</asrwt>
<pdfrwt beam="1">  1       21 0.28280405E-01 0.28814813E+02</pdfrwt>
<pdfrwt beam="2">  1       21 0.69618713E-03 0.28814813E+02</pdfrwt>
<totfact> 0.60348538E+07</totfact>
</mgrwt>
</event>
<event>
 4    1  0.7424968E+004  0.3045606E+02  0.7546771E-02  0.1593102E+00
         21   -1    0    0  503  502  0.00000000000E+00  0.00000000000E+00  0.20703131249E+02  0.20703131249E+02  0.00000000000E+00 0. -1.
         21   -1    0    0  501  503 -0.00000000000E+00 -0.00000000000E+00 -0.44823754338E+02  0.44823754338E+02  0.00000000000E+00 0. -1.
          5    1    1    2  501    0 -0.24876626990E+02 -0.17570578647E+02 -0.11363077051E+02  0.32506788898E+02  0.00000000000E+00 0. -1.
         -5    1    1    2    0  502  0.24876626990E+02  0.17570578647E+02 -0.12757546038E+02  0.33020096688E+02  0.00000000000E+00 0.  1.
<mgrwt>
<rscale>  2 0.30456064E+02</rscale>
<asrwt>0</asrwt>
<pdfrwt beam="1">  1       21 0.31850972E-02 0.30456064E+02</pdfrwt>
<pdfrwt beam="2">  1       21 0.68959621E-02 0.30456064E+02</pdfrwt>
<totfact> 0.66829455E+07</totfact>
</mgrwt>
</event>
<event>
 4    1  0.7424968E+004  0.2940970E+02  0.7546771E-02  0.1604707E+00
         21   -1    0    0  503  502  0.00000000000E+00  0.00000000000E+00  0.95679483468E+02  0.95679483468E+02  0.00000000000E+00 0. -1.
         21   -1    0    0  501  503 -0.00000000000E+00 -0.00000000000E+00 -0.90435126467E+01  0.90435126467E+01  0.00000000000E+00 0. -1.
          3    1    1    2  501    0  0.25603767727E+02  0.14469879991E+02  0.44368475883E+02  0.53230555144E+02  0.00000000000E+00 0. -1.
         -3    1    1    2    0  502 -0.25603767727E+02 -0.14469879991E+02  0.42267494938E+02  0.51492440971E+02  0.00000000000E+00 0.  1.
<mgrwt>
<rscale>  2 0.29409698E+02</rscale>
<asrwt>0</asrwt>
<pdfrwt beam="1">  1       21 0.14719920E-01 0.29409698E+02</pdfrwt>
<pdfrwt beam="2">  1       21 0.13913097E-02 0.29409698E+02</pdfrwt>
<totfact> 0.67401241E+07</totfact>
</mgrwt>
</event>
<event>
 4    1  0.7424968E+004  0.2622595E+02  0.7546771E-02  0.1643993E+00
         21   -1    0    0  503  502  0.00000000000E+00  0.00000000000E+00  0.12731387206E+02  0.12731387206E+02  0.00000000000E+00 0. -1.
         21   -1    0    0  501  503 -0.00000000000E+00 -0.00000000000E+00 -0.54137630372E+02  0.54137630372E+02  0.00000000000E+00 0. -1.
          1    1    1    2  501    0  0.61950750354E+01 -0.25483751392E+02 -0.19171396081E+02  0.32486042655E+02  0.00000000000E+00 0.  1.
         -1    1    1    2    0  502 -0.61950750354E+01  0.25483751392E+02 -0.22234847084E+02  0.34382974923E+02  0.00000000000E+00 0. -1.
<mgrwt>
<rscale>  2 0.26225952E+02</rscale>
<asrwt>0</asrwt>
<pdfrwt beam="1">  1       21 0.19586749E-02 0.26225952E+02</pdfrwt>
<pdfrwt beam="2">  1       21 0.83288663E-02 0.26225952E+02</pdfrwt>
<totfact> 0.10079512E+08</totfact>
</mgrwt>
</event>
<event>
 4    1  0.7424968E+004  0.2972421E+02  0.7546771E-02  0.1601157E+00
         21   -1    0    0  501  502  0.00000000000E+00  0.00000000000E+00  0.12469385046E+01  0.12469385046E+01  0.00000000000E+00 0.  1.
         21   -1    0    0  502  503 -0.00000000000E+00 -0.00000000000E+00 -0.84288827886E+03  0.84288827886E+03  0.00000000000E+00 0.  1.
          4    1    1    2  501    0  0.14052582488E+02  0.26192622507E+02 -0.58931434087E+03  0.59006348888E+03  0.00000000000E+00 0. -1.
         -4    1    1    2    0  503 -0.14052582488E+02 -0.26192622507E+02 -0.25232699948E+03  0.25407172848E+03  0.00000000000E+00 0.  1.
<mgrwt>
<rscale>  2 0.29724208E+02</rscale>
<asrwt>0</asrwt>
<pdfrwt beam="1">  1       21 0.19183594E-03 0.29724208E+02</pdfrwt>
<pdfrwt beam="2">  1       21 0.12967563E+00 0.29724208E+02</pdfrwt>
<totfact> 0.18175437E+07</totfact>
</mgrwt>
</event>
<event>
 4    1  0.7424968E+004  0.3766633E+02  0.7546771E-02  0.1526122E+00
         21   -1    0    0  501  502  0.00000000000E+00  0.00000000000E+00  0.90066283879E+02  0.90066283879E+02  0.00000000000E+00 0. -1.
         21   -1    0    0  502  503 -0.00000000000E+00 -0.00000000000E+00 -0.16076154395E+02  0.16076154395E+02  0.00000000000E+00 0. -1.
          3    1    1    2  501    0 -0.15012047196E+02 -0.34545488127E+02  0.44527476248E+02  0.58321937999E+02  0.00000000000E+00 0. -1.
         -3    1    1    2    0  503  0.15012047196E+02  0.34545488127E+02  0.29462653236E+02  0.47820500276E+02  0.00000000000E+00 0.  1.
<mgrwt>
<rscale>  2 0.37666329E+02</rscale>
<asrwt>0</asrwt>
<pdfrwt beam="1">  1       21 0.13856351E-01 0.37666329E+02</pdfrwt>
<pdfrwt beam="2">  1       21 0.24732546E-02 0.37666329E+02</pdfrwt>
<totfact> 0.32236781E+07</totfact>
</mgrwt>
</event>
<event>
 4    1  0.7424968E+004  0.2334707E+02  0.7546771E-02  0.1685945E+00
         21   -1    0    0  501  502  0.00000000000E+00  0.00000000000E+00  0.26061256266E+02  0.26061256266E+02  0.00000000000E+00 0. -1.
         21   -1    0    0  502  503 -0.00000000000E+00 -0.00000000000E+00 -0.37452654113E+02  0.37452654113E+02  0.00000000000E+00 0. -1.
          4    1    1    2  501    0 -0.20231026932E+02 -0.11652947552E+02 -0.26797873992E+02  0.35541689434E+02  0.00000000000E+00 0.  1.
         -4    1    1    2    0  503  0.20231026932E+02  0.11652947552E+02  0.15406476145E+02  0.27972220945E+02  0.00000000000E+00 0. -1.
<mgrwt>
<rscale>  2 0.23347069E+02</rscale>
<asrwt>0</asrwt>
<pdfrwt beam="1">  1       21 0.40094240E-02 0.23347069E+02</pdfrwt>
<pdfrwt beam="2">  1       21 0.57619468E-02 0.23347069E+02</pdfrwt>
<totfact> 0.58248641E+07</totfact>
</mgrwt>
</event>
<event>
 4    1  0.7424968E+004  0.2590547E+02  0.7546771E-02  0.1648327E+00
         21   -1    0    0  503  502  0.00000000000E+00  0.00000000000E+00  0.96287730435E+02  0.96287730435E+02  0.00000000000E+00 0.  1.
         21   -1    0    0  501  503 -0.00000000000E+00 -0.00000000000E+00 -0.95679143716E+01  0.95679143716E+01  0.00000000000E+00 0.  1.
          2    1    1    2  501    0  0.20633760551E+02 -0.15663379200E+02  0.15778556508E+02  0.30332430960E+02  0.00000000000E+00 0. -1.
         -2    1    1    2    0  502 -0.20633760551E+02  0.15663379200E+02  0.70941259555E+02  0.75523213846E+02  0.00000000000E+00 0.  1.
<mgrwt>
<rscale>  2 0.25905473E+02</rscale>
<asrwt>0</asrwt>
<pdfrwt beam="1">  1       21 0.14813496E-01 0.25905473E+02</pdfrwt>
<pdfrwt beam="2">  1       21 0.14719869E-02 0.25905473E+02</pdfrwt>
<totfact> 0.59346087E+07</totfact>
</mgrwt>
</event>
<event>
 4    1  0.7424968E+004  0.2274718E+02  0.7546771E-02  0.1695641E+00
         21   -1    0    0  503  502  0.00000000000E+00  0.00000000000E+00  0.36778882366E+02  0.36778882366E+02  0.00000000000E+00 0. -1.
         21   -1    0    0  501  503 -0.00000000000E+00 -0.00000000000E+00 -0.14666075771E+02  0.14666075771E+02  0.00000000000E+00 0. -1.
          4    1    1    2  501    0  0.22703630923E+02 -0.14069005129E+01  0.16247371764E+02  0.27953735267E+02  0.00000000000E+00 0.  1.
         -4    1    1    2    0  502 -0.22703630923E+02  0.14069005129E+01  0.58654348309E+01  0.23491222869E+02  0.00000000000E+00 0. -1.
<mgrwt>
<rscale>  2 0.22747181E+02</rscale>
<asrwt>0</asrwt>
<pdfrwt beam="1">  1       21 0.56582896E-02 0.22747181E+02</pdfrwt>
<pdfrwt beam="2">  1       21 0.22563194E-02 0.22747181E+02</pdfrwt>
<totfact> 0.14576709E+08</totfact>
</mgrwt>
</event>
<event>
 4    1  0.7424968E+004  0.3276498E+02  0.7546771E-02  0.1569394E+00
         21   -1    0    0  501  502  0.00000000000E+00  0.00000000000E+00  0.32532634788E+03  0.32532634788E+03  0.00000000000E+00 0. -1.
         21   -1    0    0  502  503 -0.00000000000E+00 -0.00000000000E+00 -0.41249474758E+01  0.41249474758E+01  0.00000000000E+00 0. -1.
          5    1    1    2  501    0  0.30566037219E+02 -0.11800902503E+02  0.23427090447E+03  0.23655105287E+03  0.00000000000E+00 0.  1.
         -5    1    1    2    0  503 -0.30566037219E+02  0.11800902503E+02  0.86930495931E+02  0.92900242486E+02  0.00000000000E+00 0. -1.
<mgrwt>
<rscale>  2 0.32764980E+02</rscale>
<asrwt>0</asrwt>
<pdfrwt beam="1">  1       21 0.50050187E-01 0.32764980E+02</pdfrwt>
<pdfrwt beam="2">  1       21 0.63460756E-03 0.32764980E+02</pdfrwt>
<totfact> 0.24114235E+07</totfact>
</mgrwt>
</event>
<event>
 4    1  0.7424968E+004  0.3679074E+02  0.7546771E-02  0.1533250E+00
         21   -1    0    0  503  502  0.00000000000E+00  0.00000000000E+00  0.14979601727E+02  0.14979601727E+02  0.00000000000E+00 0. -1.
         21   -1    0    0  501  503 -0.00000000000E+00 -0.00000000000E+00 -0.14793244038E+03  0.14793244038E+03  0.00000000000E+00 0. -1.
          3    1    1    2  501    0  0.95401117839E+01 -0.35532308629E+02 -0.15660670735E+02  0.39985188473E+02  0.00000000000E+00 0.  1.
         -3    1    1    2    0  502 -0.95401117839E+01  0.35532308629E+02 -0.11729216792E+03  0.12292685363E+03  0.00000000000E+00 0. -1.
<mgrwt>
<rscale>  2 0.36790742E+02</rscale>
<asrwt>0</asrwt>
<pdfrwt beam="1">  1       21 0.23045540E-02 0.36790742E+02</pdfrwt>
<pdfrwt beam="2">  1       21 0.22758838E-01 0.36790742E+02</pdfrwt>
<totfact> 0.14977410E+07</totfact>
</mgrwt>
</event>
<event>
 4    1  0.7424968E+004  0.3423796E+02  0.7546771E-02  0.1555474E+00
         21   -1    0    0  503  502  0.00000000000E+00  0.00000000000E+00  0.52941622332E+02  0.52941622332E+02  0.00000000000E+00 0.  1.
         21   -1    0    0  501  503 -0.00000000000E+00 -0.00000000000E+00 -0.22472291292E+02  0.22472291292E+02  0.00000000000E+00 0.  1.
          1    1    1    2  501    0 -0.20241623253E+02 -0.27613669563E+02  0.10663904358E+02  0.35860241422E+02  0.00000000000E+00 0.  1.
         -1    1    1    2    0  502  0.20241623253E+02  0.27613669563E+02  0.19805426681E+02  0.39553672202E+02  0.00000000000E+00 0. -1.
<mgrwt>
<rscale>  2 0.34237962E+02</rscale>
<asrwt>0</asrwt>
<pdfrwt beam="1">  1       21 0.81448649E-02 0.34237962E+02</pdfrwt>
<pdfrwt beam="2">  1       21 0.34572756E-02 0.34237962E+02</pdfrwt>
<totfact> 0.45767631E+07</totfact>
</mgrwt>
</event>
<event>
 4    1  0.7424968E+004  0.2094513E+02  0.7546771E-02  0.1727161E+00
         21   -1    0    0  503  502  0.00000000000E+00  0.00000000000E+00  0.27561937555E+03  0.27561937555E+03  0.00000000000E+00 0. -1.
         21   -1    0    0  501  503 -0.00000000000E+00 -0.00000000000E+00 -0.18338163728E+01  0.18338163728E+01  0.00000000000E+00 0. -1.
          3    1    1    2  501    0 -0.20481414848E+02  0.43829133734E+01  0.18730204910E+03  0.18846950915E+03  0.00000000000E+00 0.  1.
         -3    1    1    2    0  502  0.20481414848E+02 -0.43829133734E+01  0.86483510085E+02  0.88983682776E+02  0.00000000000E+00 0. -1.
<mgrwt>
<rscale>  2 0.20945126E+02</rscale>
<asrwt>0</asrwt>
<pdfrwt beam="1">  1       21 0.42402948E-01 0.20945126E+02</pdfrwt>
<pdfrwt beam="2">  1       21 0.28212581E-03 0.20945126E+02</pdfrwt>
<totfact> 0.99563250E+07</totfact>
</mgrwt>
</event>
<event>
 4    1  0.7424968E+004  0.2044035E+02  0.7546771E-02  0.1736710E+00
         21   -1    0    0  503  502  0.00000000000E+00  0.00000000000E+00  0.19337544668E+03  0.19337544668E+03  0.00000000000E+00 0.  1.
         21   -1    0    0  501  503 -0.00000000000E+00 -0.00000000000E+00 -0.23767722850E+01  0.23767722850E+01  0.00000000000E+00 0.  1.
          5    1    1    2  501    0  0.20123332890E+02 -0.35860249924E+01  0.12501667205E+03  0.12667666081E+03  0.00000000000E+00 0. -1.
         -5    1    1    2    0  502 -0.20123332890E+02  0.35860249924E+01  0.65982002341E+02  0.69075558158E+02  0.00000000000E+00 0.  1.
<mgrwt>
<rscale>  2 0.20440355E+02</rscale>
<asrwt>0</asrwt>
<pdfrwt beam="1">  1       21 0.29750056E-01 0.20440355E+02</pdfrwt>
<pdfrwt beam="2">  1       21 0.36565743E-03 0.20440355E+02</pdfrwt>
<totfact> 0.13054103E+08</totfact>
</mgrwt>
</event>
<event>
 4    1  0.7424968E+004  0.2055513E+02  0.7546771E-02  0.1734509E+00
         21   -1    0    0  503  502  0.00000000000E+00  0.00000000000E+00  0.16486299376E+03  0.16486299376E+03  0.00000000000E+00 0.  1.
         21   -1    0    0  501  503 -0.00000000000E+00 -0.00000000000E+00 -0.26051147058E+01  0.26051147058E+01  0.00000000000E+00 0.  1.
          1    1    1    2  501    0  0.26975236999E+01  0.20377358475E+02  0.70459127436E+02  0.73396198890E+02  0.00000000000E+00 0. -1.
         -1    1    1    2    0  502 -0.26975236999E+01 -0.20377358475E+02  0.91798751623E+02  0.94071909580E+02  0.00000000000E+00 0.  1.
<mgrwt>
<rscale>  2 0.20555130E+02</rscale>
<asrwt>0</asrwt>
<pdfrwt beam="1">  1       21 0.25363529E-01 0.20555130E+02</pdfrwt>
<pdfrwt beam="2">  1       21 0.40078701E-03 0.20555130E+02</pdfrwt>
<totfact> 0.15221579E+08</totfact>
</mgrwt>
</event>
<event>
 4    1  0.7424968E+004  0.2039852E+02  0.7546771E-02  0.1737517E+00
         21   -1    0    0  503  502  0.00000000000E+00  0.00000000000E+00  0.43318144850E+02  0.43318144850E+02  0.00000000000E+00 0. -1.
         21   -1    0    0  501  503 -0.00000000000E+00 -0.00000000000E+00 -0.12213681251E+02  0.12213681251E+02  0.00000000000E+00 0. -1.
          5    1    1    2  501    0 -0.12665214041E+02  0.15990377276E+02  0.28382725980E+02  0.34952524175E+02  0.00000000000E+00 0. -1.
         -5    1    1    2    0  502  0.12665214041E+02 -0.15990377276E+02  0.27217376187E+01  0.20579301926E+02  0.00000000000E+00 0.  1.
<mgrwt>
<rscale>  2 0.20398525E+02</rscale>
<asrwt>0</asrwt>
<pdfrwt beam="1">  1       21 0.66643299E-02 0.20398525E+02</pdfrwt>
<pdfrwt beam="2">  1       21 0.18790279E-02 0.20398525E+02</pdfrwt>
<totfact> 0.14352863E+08</totfact>
</mgrwt>
</event>
<event>
 4    1  0.7424968E+004  0.2523055E+02  0.7546771E-02  0.1657712E+00
         21   -1    0    0  501  502  0.00000000000E+00  0.00000000000E+00  0.12206299114E+02  0.12206299114E+02  0.00000000000E+00 0.  1.
         21   -1    0    0  502  503 -0.00000000000E+00 -0.00000000000E+00 -0.52274690966E+02  0.52274690966E+02  0.00000000000E+00 0.  1.
          2    1    1    2  501    0 -0.23987788824E+02  0.78209094125E+01 -0.18471077688E+02  0.31269175679E+02  0.00000000000E+00 0.  1.
         -2    1    1    2    0  503  0.23987788824E+02 -0.78209094125E+01 -0.21597314164E+02  0.33211814401E+02  0.00000000000E+00 0. -1.
<mgrwt>
<rscale>  2 0.25230550E+02</rscale>
<asrwt>0</asrwt>
<pdfrwt beam="1">  1       21 0.18778922E-02 0.25230550E+02</pdfrwt>
<pdfrwt beam="2">  1       21 0.80422602E-02 0.25230550E+02</pdfrwt>
<totfact> 0.11274044E+08</totfact>
</mgrwt>
</event>
<event>
 4    1  0.7424968E+004  0.3289251E+02  0.7546771E-02  0.1568154E+00
         21   -1    0    0  503  502  0.00000000000E+00  0.00000000000E+00  0.62892855533E+02  0.62892855533E+02  0.00000000000E+00 0. -1.
         21   -1    0    0  501  503 -0.00000000000E+00 -0.00000000000E+00 -0.61109601874E+02  0.61109601874E+02  0.00000000000E+00 0. -1.
          1    1    1    2  501    0 -0.31316789701E+02 -0.10058637058E+02  0.53446465517E+02  0.62757008954E+02  0.00000000000E+00 0. -1.
         -1    1    1    2    0  502  0.31316789701E+02  0.10058637058E+02 -0.51663211858E+02  0.61245448453E+02  0.00000000000E+00 0.  1.
<mgrwt>
<rscale>  2 0.32892514E+02</rscale>
<asrwt>0</asrwt>
<pdfrwt beam="1">  1       21 0.96758239E-02 0.32892514E+02</pdfrwt>
<pdfrwt beam="2">  1       21 0.94014773E-02 0.32892514E+02</pdfrwt>
<totfact> 0.67005442E+06</totfact>
</mgrwt>
</event>
<event>
 4    1  0.7424968E+004  0.2232177E+02  0.7546771E-02  0.1702746E+00
         21   -1    0    0  501  502  0.00000000000E+00  0.00000000000E+00  0.19413270317E+03  0.19413270317E+03  0.00000000000E+00 0. -1.
         21   -1    0    0  502  503 -0.00000000000E+00 -0.00000000000E+00 -0.30239701091E+01  0.30239701091E+01  0.00000000000E+00 0. -1.
          4    1    1    2  501    0  0.17879290112E+02 -0.13363845146E+02  0.13389203596E+03  0.13573996709E+03  0.00000000000E+00 0.  1.
         -4    1    1    2    0  503 -0.17879290112E+02  0.13363845146E+02  0.57216697103E+02  0.61416706191E+02  0.00000000000E+00 0. -1.
<mgrwt>
<rscale>  2 0.22321769E+02</rscale>
<asrwt>0</asrwt>
<pdfrwt beam="1">  1       21 0.29866560E-01 0.22321769E+02</pdfrwt>
<pdfrwt beam="2">  1       21 0.46522633E-03 0.22321769E+02</pdfrwt>
<totfact> 0.93367178E+07</totfact>
</mgrwt>
</event>
<event>
 4    1  0.7424968E+004  0.2280549E+02  0.7546771E-02  0.1694683E+00
         21   -1    0    0  501  502  0.00000000000E+00  0.00000000000E+00  0.99708002210E+02  0.99708002210E+02  0.00000000000E+00 0. -1.
         21   -1    0    0  502  503 -0.00000000000E+00 -0.00000000000E+00 -0.52242699451E+01  0.52242699451E+01  0.00000000000E+00 0. -1.
          3    1    1    2  501    0 -0.22135022865E+02 -0.54891782855E+01  0.49312323274E+02  0.54330429247E+02  0.00000000000E+00 0. -1.
         -3    1    1    2    0  503  0.22135022865E+02  0.54891782855E+01  0.45171408991E+02  0.50601842909E+02  0.00000000000E+00 0.  1.
<mgrwt>
<rscale>  2 0.22805489E+02</rscale>
<asrwt>0</asrwt>
<pdfrwt beam="1">  1       21 0.15339691E-01 0.22805489E+02</pdfrwt>
<pdfrwt beam="2">  1       21 0.80373391E-03 0.22805489E+02</pdfrwt>
<totfact> 0.13466418E+08</totfact>
</mgrwt>
</event>
<event>
 4    1  0.7424968E+004  0.2381792E+02  0.7546771E-02  0.1678585E+00
         21   -1    0    0  501  502  0.00000000000E+00  0.00000000000E+00  0.18316022379E+01  0.18316022379E+01  0.00000000000E+00 0.  1.
         21   -1    0    0  502  503 -0.00000000000E+00 -0.00000000000E+00 -0.35765180873E+03  0.35765180873E+03  0.00000000000E+00 0.  1.
          2    1    1    2  501    0  0.22900712517E+02  0.65460567736E+01 -0.24370719367E+03  0.24486831102E+03  0.00000000000E+00 0. -1.
         -2    1    1    2    0  503 -0.22900712517E+02 -0.65460567736E+01 -0.11211301282E+03  0.11461509995E+03  0.00000000000E+00 0.  1.
<mgrwt>
<rscale>  2 0.23817924E+02</rscale>
<asrwt>0</asrwt>
<pdfrwt beam="1">  1       21 0.28178538E-03 0.23817924E+02</pdfrwt>
<pdfrwt beam="2">  1       21 0.55023274E-01 0.23817924E+02</pdfrwt>
<totfact> 0.62298098E+07</totfact>
</mgrwt>
</event>
<event>
 4    1  0.7424968E+004  0.2091763E+02  0.7546771E-02  0.1727672E+00
         21   -1    0    0  501  502  0.00000000000E+00  0.00000000000E+00  0.19929032684E+04  0.19929032684E+04  0.00000000000E+00 0.  1.
         21   -1    0    0  502  503 -0.00000000000E+00 -0.00000000000E+00 -0.23103483952E+00  0.23103483952E+00  0.00000000000E+00 0.  1.
          4    1    1    2  501    0  0.67775415369E+01  0.19789189021E+02  0.12185040357E+04  0.12186835652E+04  0.00000000000E+00 0.  1.
         -4    1    1    2    0  503 -0.67775415369E+01 -0.19789189021E+02  0.77416819780E+03  0.77445073798E+03  0.00000000000E+00 0. -1.
<mgrwt>
<rscale>  2 0.20917626E+02</rscale>
<asrwt>0</asrwt>
<pdfrwt beam="1">  1       21 0.30658674E+00 0.20917626E+02</pdfrwt>
<pdfrwt beam="2">  1       21 0.35545417E-04 0.20917626E+02</pdfrwt>
<totfact> 0.19372040E+07</totfact>
</mgrwt>
</event>
<event>
 4    1  0.7424968E+004  0.2151438E+02  0.7546771E-02  0.1716788E+00
         21   -1    0    0  503  502  0.00000000000E+00  0.00000000000E+00  0.14769043185E+02  0.14769043185E+02  0.00000000000E+00 0. -1.
         21   -1    0    0  501  503 -0.00000000000E+00 -0.00000000000E+00 -0.43483581644E+02  0.43483581644E+02  0.00000000000E+00 0. -1.
          2    1    1    2  501    0  0.19978113646E+02 -0.79839523026E+01 -0.29749023755E+02  0.36713389024E+02  0.00000000000E+00 0. -1.
         -2    1    1    2    0  502 -0.19978113646E+02  0.79839523026E+01  0.10344852957E+01  0.21539235805E+02  0.00000000000E+00 0.  1.
<mgrwt>
<rscale>  2 0.21514379E+02</rscale>
<asrwt>0</asrwt>
<pdfrwt beam="1">  1       21 0.22721605E-02 0.21514379E+02</pdfrwt>
<pdfrwt beam="2">  1       21 0.66897817E-02 0.21514379E+02</pdfrwt>
<totfact> 0.10838245E+08</totfact>
</mgrwt>
</event>
<event>
 4    1  0.7424968E+004  0.3338089E+02  0.7546771E-02  0.1563467E+00
         21   -1    0    0  501  502  0.00000000000E+00  0.00000000000E+00  0.10001278263E+01  0.10001278263E+01  0.00000000000E+00 0. -1.
         21   -1    0    0  502  503 -0.00000000000E+00 -0.00000000000E+00 -0.11873739182E+04  0.11873739182E+04  0.00000000000E+00 0. -1.
          3    1    1    2  501    0 -0.33360527966E+02 -0.11657665694E+01 -0.74075120515E+03  0.74150295466E+03  0.00000000000E+00 0. -1.
         -3    1    1    2    0  503  0.33360527966E+02  0.11657665694E+01 -0.44562258524E+03  0.44687109138E+03  0.00000000000E+00 0.  1.
<mgrwt>
<rscale>  2 0.33380890E+02</rscale>
<asrwt>0</asrwt>
<pdfrwt beam="1">  1       21 0.15386509E-03 0.33380890E+02</pdfrwt>
<pdfrwt beam="2">  1       21 0.18267377E+00 0.33380890E+02</pdfrwt>
<totfact> 0.11016027E+07</totfact>
</mgrwt>
</event>
<event>
 4    1  0.7424968E+004  0.2868054E+02  0.7546771E-02  0.1613149E+00
         21   -1    0    0  501  502  0.00000000000E+00  0.00000000000E+00  0.56995891911E+02  0.56995891911E+02  0.00000000000E+00 0.  1.
         21   -1    0    0  502  503 -0.00000000000E+00 -0.00000000000E+00 -0.14721507739E+02  0.14721507739E+02  0.00000000000E+00 0.  1.
          2    1    1    2  501    0 -0.28565732035E+02  0.25637093849E+01  0.26164445702E+02  0.38822053931E+02  0.00000000000E+00 0. -1.
         -2    1    1    2    0  503  0.28565732035E+02 -0.25637093849E+01  0.16109938470E+02  0.32895345719E+02  0.00000000000E+00 0.  1.
<mgrwt>
<rscale>  2 0.28680545E+02</rscale>
<asrwt>0</asrwt>
<pdfrwt beam="1">  1       21 0.87685987E-02 0.28680545E+02</pdfrwt>
<pdfrwt beam="2">  1       21 0.22648474E-02 0.28680545E+02</pdfrwt>
<totfact> 0.75667110E+07</totfact>
</mgrwt>
</event>
<event>
 4    1  0.7424968E+004  0.3597188E+02  0.7546771E-02  0.1540136E+00
         21   -1    0    0  501  502  0.00000000000E+00  0.00000000000E+00  0.74770773792E+02  0.74770773792E+02  0.00000000000E+00 0.  1.
         21   -1    0    0  502  503 -0.00000000000E+00 -0.00000000000E+00 -0.17888282434E+02  0.17888282434E+02  0.00000000000E+00 0.  1.
          3    1    1    2  501    0  0.35790572865E+02  0.36071213563E+01  0.20081882014E+02  0.41197796248E+02  0.00000000000E+00 0.  1.
         -3    1    1    2    0  503 -0.35790572865E+02 -0.36071213563E+01  0.36800609344E+02  0.51461259978E+02  0.00000000000E+00 0. -1.
<mgrwt>
<rscale>  2 0.35971884E+02</rscale>
<asrwt>0</asrwt>
<pdfrwt beam="1">  1       21 0.11503196E-01 0.35971884E+02</pdfrwt>
<pdfrwt beam="2">  1       21 0.27520435E-02 0.35971884E+02</pdfrwt>
<totfact> 0.37158214E+07</totfact>
</mgrwt>
</event>
<event>
 4    1  0.7424968E+004  0.3203913E+02  0.7546771E-02  0.1576584E+00
         21   -1    0    0  501  502  0.00000000000E+00  0.00000000000E+00  0.89025555619E+00  0.89025555619E+00  0.00000000000E+00 0.  1.
         21   -1    0    0  502  503 -0.00000000000E+00 -0.00000000000E+00 -0.11847969211E+04  0.11847969211E+04  0.00000000000E+00 0.  1.
          2    1    1    2  501    0  0.28955464094E+02  0.13714490171E+02 -0.68900259429E+03  0.68974711386E+03  0.00000000000E+00 0. -1.
         -2    1    1    2    0  503 -0.28955464094E+02 -0.13714490171E+02 -0.49490407130E+03  0.49594006284E+03  0.00000000000E+00 0.  1.
<mgrwt>
<rscale>  2 0.32039135E+02</rscale>
<asrwt>0</asrwt>
<pdfrwt beam="1">  1       21 0.13696263E-03 0.32039135E+02</pdfrwt>
<pdfrwt beam="2">  1       21 0.18227614E+00 0.32039135E+02</pdfrwt>
<totfact> 0.13060285E+07</totfact>
</mgrwt>
</event>
<event>
 4    1  0.7424968E+004  0.2172032E+02  0.7546771E-02  0.1713134E+00
         21   -1    0    0  503  502  0.00000000000E+00  0.00000000000E+00  0.32213485483E+01  0.32213485483E+01  0.00000000000E+00 0.  1.
         21   -1    0    0  501  503 -0.00000000000E+00 -0.00000000000E+00 -0.15277662421E+03  0.15277662421E+03  0.00000000000E+00 0.  1.
          3    1    1    2  501    0 -0.21714314630E+02  0.51076877701E+00 -0.90647903145E+02  0.93213811686E+02  0.00000000000E+00 0. -1.
         -3    1    1    2    0  502  0.21714314630E+02 -0.51076877701E+00 -0.58907372513E+02  0.62784161067E+02  0.00000000000E+00 0.  1.
<mgrwt>
<rscale>  2 0.21720321E+02</rscale>
<asrwt>0</asrwt>
<pdfrwt beam="1">  1       21 0.49559207E-03 0.21720321E+02</pdfrwt>
<pdfrwt beam="2">  1       21 0.23504097E-01 0.21720321E+02</pdfrwt>
<totfact> 0.12966187E+08</totfact>
</mgrwt>
</event>
<event>
 4    1  0.7424968E+004  0.2992278E+02  0.7546771E-02  0.1598944E+00
         21   -1    0    0  501  502  0.00000000000E+00  0.00000000000E+00  0.12022237560E+02  0.12022237560E+02  0.00000000000E+00 0. -1.
         21   -1    0    0  502  503 -0.00000000000E+00 -0.00000000000E+00 -0.10140203585E+03  0.10140203585E+03  0.00000000000E+00 0. -1.
          3    1    1    2  501    0  0.29039253072E+02  0.72176468978E+01 -0.73913644629E+02  0.79740827109E+02  0.00000000000E+00 0.  1.
         -3    1    1    2    0  503 -0.29039253072E+02 -0.72176468978E+01 -0.15466153662E+02  0.33683446303E+02  0.00000000000E+00 0. -1.
<mgrwt>
<rscale>  2 0.29922778E+02</rscale>
<asrwt>0</asrwt>
<pdfrwt beam="1">  1       21 0.18495750E-02 0.29922778E+02</pdfrwt>
<pdfrwt beam="2">  1       21 0.15600313E-01 0.29922778E+02</pdfrwt>
<totfact> 0.39518279E+07</totfact>
</mgrwt>
</event>
<event>
 4    1  0.7424968E+004  0.2353404E+02  0.7546771E-02  0.1682997E+00
         21   -1    0    0  503  502  0.00000000000E+00  0.00000000000E+00  0.15623609576E+02  0.15623609576E+02  0.00000000000E+00 0. -1.
         21   -1    0    0  501  503 -0.00000000000E+00 -0.00000000000E+00 -0.36096945935E+02  0.36096945935E+02  0.00000000000E+00 0. -1.
          1    1    1    2  501    0  0.46381566854E+01 -0.23072461881E+02 -0.67736078619E+01  0.24489441769E+02  0.00000000000E+00 0.  1.
         -1    1    1    2    0  502 -0.46381566854E+01  0.23072461881E+02 -0.13699728497E+02  0.27231113741E+02  0.00000000000E+00 0. -1.
<mgrwt>
<rscale>  2 0.23534039E+02</rscale>
<asrwt>0</asrwt>
<pdfrwt beam="1">  1       21 0.24036323E-02 0.23534039E+02</pdfrwt>
<pdfrwt beam="2">  1       21 0.55533763E-02 0.23534039E+02</pdfrwt>
<totfact> 0.13763950E+08</totfact>
</mgrwt>
</event>
<event>
 4    1  0.7424968E+004  0.2834268E+02  0.7546771E-02  0.1617165E+00
         21   -1    0    0  501  502  0.00000000000E+00  0.00000000000E+00  0.32392412593E+02  0.32392412593E+02  0.00000000000E+00 0. -1.
         21   -1    0    0  502  503 -0.00000000000E+00 -0.00000000000E+00 -0.25075499755E+02  0.25075499755E+02  0.00000000000E+00 0. -1.
          3    1    1    2  501    0 -0.57337427209E+01 -0.27756651358E+02  0.64251782625E+00  0.28349961717E+02  0.00000000000E+00 0. -1.
         -3    1    1    2    0  503  0.57337427209E+01  0.27756651358E+02  0.66743950124E+01  0.29117950631E+02  0.00000000000E+00 0.  1.
<mgrwt>
<rscale>  2 0.28342680E+02</rscale>
<asrwt>0</asrwt>
<pdfrwt beam="1">  1       21 0.49834481E-02 0.28342680E+02</pdfrwt>
<pdfrwt beam="2">  1       21 0.38577692E-02 0.28342680E+02</pdfrwt>
<totfact> 0.82105284E+07</totfact>
</mgrwt>
</event>
<event>
 4    1  0.7424968E+004  0.2139785E+02  0.7546771E-02  0.1718879E+00
         21   -1    0    0  501  502  0.00000000000E+00  0.00000000000E+00  0.72025896226E+00  0.72025896226E+00  0.00000000000E+00 0.  1.
         21   -1    0    0  502  503 -0.00000000000E+00 -0.00000000000E+00 -0.68879953025E+03  0.68879953025E+03  0.00000000000E+00 0.  1.
          5    1    1    2  501    0  0.13507301137E+02  0.16595800629E+02 -0.24831572655E+03  0.24923596818E+03  0.00000000000E+00 0.  1.
         -5    1    1    2    0  503 -0.13507301137E+02 -0.16595800629E+02 -0.43976354473E+03  0.44028382103E+03  0.00000000000E+00 0. -1.
<mgrwt>
<rscale>  2 0.21397845E+02</rscale>
<asrwt>0</asrwt>
<pdfrwt beam="1">  1       21 0.11080889E-03 0.21397845E+02</pdfrwt>
<pdfrwt beam="2">  1       21 0.10596933E+00 0.21397845E+02</pdfrwt>
<totfact> 0.59456722E+07</totfact>
</mgrwt>
</event>
<event>
 4    1  0.7424968E+004  0.2126118E+02  0.7546771E-02  0.1721352E+00
         21   -1    0    0  501  502  0.00000000000E+00  0.00000000000E+00  0.12145226241E+03  0.12145226241E+03  0.00000000000E+00 0. -1.
         21   -1    0    0  502  503 -0.00000000000E+00 -0.00000000000E+00 -0.39609560857E+01  0.39609560857E+01  0.00000000000E+00 0. -1.
          2    1    1    2  501    0  0.14248479647E+02 -0.15780323470E+02  0.43341821729E+02  0.48275783700E+02  0.00000000000E+00 0. -1.
         -2    1    1    2    0  503 -0.14248479647E+02  0.15780323470E+02  0.74149484591E+02  0.77137434791E+02  0.00000000000E+00 0.  1.
<mgrwt>
<rscale>  2 0.21261180E+02</rscale>
<asrwt>0</asrwt>
<pdfrwt beam="1">  1       21 0.18684961E-01 0.21261180E+02</pdfrwt>
<pdfrwt beam="2">  1       21 0.60937795E-03 0.21261180E+02</pdfrwt>
<totfact> 0.14185968E+08</totfact>
</mgrwt>
</event>
<event>
 4    1  0.7424968E+004  0.2164711E+02  0.7546771E-02  0.1714427E+00
         21   -1    0    0  503  502  0.00000000000E+00  0.00000000000E+00  0.39399242974E+01  0.39399242974E+01  0.00000000000E+00 0. -1.
         21   -1    0    0  501  503 -0.00000000000E+00 -0.00000000000E+00 -0.11927104472E+03  0.11927104472E+03  0.00000000000E+00 0. -1.
          2    1    1    2  501    0  0.11079807071E+02  0.18596645740E+02 -0.60932539380E+02  0.64663526913E+02  0.00000000000E+00 0.  1.
         -2    1    1    2    0  502 -0.11079807071E+02 -0.18596645740E+02 -0.54398581044E+02  0.58547442106E+02  0.00000000000E+00 0. -1.
<mgrwt>
<rscale>  2 0.21647110E+02</rscale>
<asrwt>0</asrwt>
<pdfrwt beam="1">  1       21 0.60614223E-03 0.21647110E+02</pdfrwt>
<pdfrwt beam="2">  1       21 0.18349390E-01 0.21647110E+02</pdfrwt>
<totfact> 0.14831351E+08</totfact>
</mgrwt>
</event>
<event>
 4    1  0.7424968E+004  0.2249988E+02  0.7546771E-02  0.1699748E+00
         21   -1    0    0  503  502  0.00000000000E+00  0.00000000000E+00  0.56462869682E+02  0.56462869682E+02  0.00000000000E+00 0. -1.
         21   -1    0    0  501  503 -0.00000000000E+00 -0.00000000000E+00 -0.91842422711E+01  0.91842422711E+01  0.00000000000E+00 0. -1.
          4    1    1    2  501    0 -0.22030921998E+02  0.45697984515E+01  0.18579203624E+02  0.29179297271E+02  0.00000000000E+00 0.  1.
         -4    1    1    2    0  502  0.22030921998E+02 -0.45697984515E+01  0.28699423787E+02  0.36467814681E+02  0.00000000000E+00 0. -1.
<mgrwt>
<rscale>  2 0.22499880E+02</rscale>
<asrwt>0</asrwt>
<pdfrwt beam="1">  1       21 0.86865951E-02 0.22499880E+02</pdfrwt>
<pdfrwt beam="2">  1       21 0.14129604E-02 0.22499880E+02</pdfrwt>
<totfact> 0.14839160E+08</totfact>
</mgrwt>
</event>
<event>
 4    1  0.7424968E+004  0.2651696E+02  0.7546771E-02  0.1640123E+00
         21   -1    0    0  501  502  0.00000000000E+00  0.00000000000E+00  0.29034306207E+02  0.29034306207E+02  0.00000000000E+00 0.  1.
         21   -1    0    0  502  503 -0.00000000000E+00 -0.00000000000E+00 -0.40770569386E+02  0.40770569386E+02  0.00000000000E+00 0.  1.
          5    1    1    2  501    0 -0.99920190448E+01  0.24562344910E+02  0.16370942749E+02  0.31163391962E+02  0.00000000000E+00 0. -1.
         -5    1    1    2    0  503  0.99920190448E+01 -0.24562344910E+02 -0.28107205928E+02  0.38641483631E+02  0.00000000000E+00 0.  1.
<mgrwt>
<rscale>  2 0.26516961E+02</rscale>
<asrwt>0</asrwt>
<pdfrwt beam="1">  1       21 0.44668163E-02 0.26516961E+02</pdfrwt>
<pdfrwt beam="2">  1       21 0.62723953E-02 0.26516961E+02</pdfrwt>
<totfact> 0.44175449E+07</totfact>
</mgrwt>
</event>
<event>
 4    1  0.7424968E+004  0.2642598E+02  0.7546771E-02  0.1641326E+00
         21   -1    0    0  501  502  0.00000000000E+00  0.00000000000E+00  0.18156150167E+02  0.18156150167E+02  0.00000000000E+00 0.  1.
         21   -1    0    0  502  503 -0.00000000000E+00 -0.00000000000E+00 -0.38854045969E+02  0.38854045969E+02  0.00000000000E+00 0.  1.
          2    1    1    2  501    0  0.24774742097E+02 -0.91948132501E+01 -0.74877385304E+01  0.27466318737E+02  0.00000000000E+00 0.  1.
         -2    1    1    2    0  503 -0.24774742097E+02  0.91948132501E+01 -0.13210157271E+02  0.29543877399E+02  0.00000000000E+00 0. -1.
<mgrwt>
<rscale>  2 0.26425980E+02</rscale>
<asrwt>0</asrwt>
<pdfrwt beam="1">  1       21 0.27932539E-02 0.26425980E+02</pdfrwt>
<pdfrwt beam="2">  1       21 0.59775456E-02 0.26425980E+02</pdfrwt>
<totfact> 0.99996202E+07</totfact>
</mgrwt>
</event>
<event>
 4    1  0.7424968E+004  0.2370786E+02  0.7546771E-02  0.1680286E+00
         21   -1    0    0  503  502  0.00000000000E+00  0.00000000000E+00  0.21099209164E+02  0.21099209164E+02  0.00000000000E+00 0. -1.
         21   -1    0    0  501  503 -0.00000000000E+00 -0.00000000000E+00 -0.26865121518E+02  0.26865121518E+02  0.00000000000E+00 0. -1.
          2    1    1    2  501    0 -0.21649734216E+02 -0.96618602665E+01 -0.68290411477E+00  0.23717691571E+02  0.00000000000E+00 0. -1.
         -2    1    1    2    0  502  0.21649734216E+02  0.96618602665E+01 -0.50830082397E+01  0.24246639111E+02  0.00000000000E+00 0.  1.
<mgrwt>
<rscale>  2 0.23707858E+02</rscale>
<asrwt>0</asrwt>
<pdfrwt beam="1">  1       21 0.32460322E-02 0.23707858E+02</pdfrwt>
<pdfrwt beam="2">  1       21 0.41330956E-02 0.23707858E+02</pdfrwt>
<totfact> 0.13832108E+08</totfact>
</mgrwt>
</event>
<event>
 4    1  0.7424968E+004  0.2153983E+02  0.7546771E-02  0.1716334E+00
         21   -1    0    0  503  502  0.00000000000E+00  0.00000000000E+00  0.25134410055E+03  0.25134410055E+03  0.00000000000E+00 0.  1.
         21   -1    0    0  501  503 -0.00000000000E+00 -0.00000000000E+00 -0.24184213233E+01  0.24184213233E+01  0.00000000000E+00 0.  1.
          2    1    1    2  501    0 -0.12271580458E+02  0.17702333938E+02  0.18619548743E+03  0.18743725311E+03  0.00000000000E+00 0. -1.
         -2    1    1    2    0  502  0.12271580458E+02 -0.17702333938E+02  0.62730191792E+02  0.66325268759E+02  0.00000000000E+00 0.  1.
<mgrwt>
<rscale>  2 0.21539831E+02</rscale>
<asrwt>0</asrwt>
<pdfrwt beam="1">  1       21 0.38668302E-01 0.21539831E+02</pdfrwt>
<pdfrwt beam="2">  1       21 0.37206502E-03 0.21539831E+02</pdfrwt>
<totfact> 0.79745744E+07</totfact>
</mgrwt>
</event>
<event>
 4    1  0.7424968E+004  0.2122071E+02  0.7546771E-02  0.1722089E+00
         21   -1    0    0  501  502  0.00000000000E+00  0.00000000000E+00  0.31360714118E+02  0.31360714118E+02  0.00000000000E+00 0. -1.
         21   -1    0    0  502  503 -0.00000000000E+00 -0.00000000000E+00 -0.15210183325E+02  0.15210183325E+02  0.00000000000E+00 0. -1.
          3    1    1    2  501    0  0.12964263194E+02  0.16800185350E+02  0.13582692607E+02  0.25195394151E+02  0.00000000000E+00 0. -1.
         -3    1    1    2    0  503 -0.12964263194E+02 -0.16800185350E+02  0.25678381856E+01  0.21375503291E+02  0.00000000000E+00 0.  1.
<mgrwt>
<rscale>  2 0.21220706E+02</rscale>
<asrwt>0</asrwt>
<pdfrwt beam="1">  1       21 0.48247252E-02 0.21220706E+02</pdfrwt>
<pdfrwt beam="2">  1       21 0.23400282E-02 0.21220706E+02</pdfrwt>
<totfact> 0.17385832E+08</totfact>
</mgrwt>
</event>
<event>
 4    1  0.7424968E+004  0.2708300E+02  0.7546771E-02  0.1632768E+00
         21   -1    0    0  501  502  0.00000000000E+00  0.00000000000E+00  0.49623516481E+02  0.49623516481E+02  0.00000000000E+00 0. -1.
         21   -1    0    0  502  503 -0.00000000000E+00 -0.00000000000E+00 -0.17382436218E+02  0.17382436218E+02  0.00000000000E+00 0. -1.
          1    1    1    2  501    0  0.26713561669E+02 -0.44581059608E+01  0.29081229991E+02  0.39739237834E+02  0.00000000000E+00 0.  1.
         -1    1    1    2    0  503 -0.26713561669E+02  0.44581059608E+01  0.31598502716E+01  0.27266714866E+02  0.00000000000E+00 0. -1.
<mgrwt>
<rscale>  2 0.27083004E+02</rscale>
<asrwt>0</asrwt>
<pdfrwt beam="1">  1       21 0.76343871E-02 0.27083004E+02</pdfrwt>
<pdfrwt beam="2">  1       21 0.26742210E-02 0.27083004E+02</pdfrwt>
<totfact> 0.72349818E+07</totfact>
</mgrwt>
</event>
<event>
 4    1  0.7424968E+004  0.3417718E+02  0.7546771E-02  0.1556031E+00
         21   -1    0    0  503  502  0.00000000000E+00  0.00000000000E+00  0.50090709916E+01  0.50090709916E+01  0.00000000000E+00 0.  1.
         21   -1    0    0  501  503 -0.00000000000E+00 -0.00000000000E+00 -0.23568691900E+03  0.23568691900E+03  0.00000000000E+00 0.  1.
          1    1    1    2  501    0 -0.31166713013E+02  0.14025529462E+02 -0.12771908973E+03  0.13221287894E+03  0.00000000000E+00 0.  1.
         -1    1    1    2    0  502  0.31166713013E+02 -0.14025529462E+02 -0.10295875828E+03  0.10848311105E+03  0.00000000000E+00 0. -1.
<mgrwt>
<rscale>  2 0.34177178E+02</rscale>
<asrwt>0</asrwt>
<pdfrwt beam="1">  1       21 0.77062669E-03 0.34177178E+02</pdfrwt>
<pdfrwt beam="2">  1       21 0.36259508E-01 0.34177178E+02</pdfrwt>
<totfact> 0.33786829E+07</totfact>
</mgrwt>
</event>
<event>
 4    1  0.7424968E+004  0.2226807E+02  0.7546771E-02  0.1703657E+00
         21   -1    0    0  501  502  0.00000000000E+00  0.00000000000E+00  0.97737226746E+01  0.97737226746E+01  0.00000000000E+00 0. -1.
         21   -1    0    0  502  503 -0.00000000000E+00 -0.00000000000E+00 -0.52931859562E+02  0.52931859562E+02  0.00000000000E+00 0. -1.
          1    1    1    2  501    0 -0.18202769583E+02  0.12826779481E+02 -0.15191341199E+02  0.26956333945E+02  0.00000000000E+00 0. -1.
         -1    1    1    2    0  503  0.18202769583E+02 -0.12826779481E+02 -0.27966795688E+02  0.35749248291E+02  0.00000000000E+00 0.  1.
<mgrwt>
<rscale>  2 0.22268073E+02</rscale>
<asrwt>0</asrwt>
<pdfrwt beam="1">  1       21 0.15036496E-02 0.22268073E+02</pdfrwt>
<pdfrwt beam="2">  1       21 0.81433630E-02 0.22268073E+02</pdfrwt>
<totfact> 0.14958842E+08</totfact>
</mgrwt>
</event>
<event>
 4    1  0.7424968E+004  0.2002457E+02  0.7546771E-02  0.1744840E+00
         21   -1    0    0  501  502  0.00000000000E+00  0.00000000000E+00  0.78541626650E+03  0.78541626650E+03  0.00000000000E+00 0. -1.
         21   -1    0    0  502  503 -0.00000000000E+00 -0.00000000000E+00 -0.51238767443E+00  0.51238767443E+00  0.00000000000E+00 0. -1.
          3    1    1    2  501    0  0.18016391854E+02 -0.87403045535E+01  0.41607483372E+03  0.41655641941E+03  0.00000000000E+00 0.  1.
         -3    1    1    2    0  503 -0.18016391854E+02  0.87403045535E+01  0.36882904511E+03  0.36937223476E+03  0.00000000000E+00 0. -1.
<mgrwt>
<rscale>  2 0.20024567E+02</rscale>
<asrwt>0</asrwt>
<pdfrwt beam="1">  1       21 0.12083231E+00 0.20024567E+02</pdfrwt>
<pdfrwt beam="2">  1       21 0.78829502E-04 0.20024567E+02</pdfrwt>
<totfact> 0.70805553E+07</totfact>
</mgrwt>
</event>
<event>
 4    1  0.7424968E+004  0.2444634E+02  0.7546771E-02  0.1669084E+00
         21   -1    0    0  501  502  0.00000000000E+00  0.00000000000E+00  0.14547435223E+03  0.14547435223E+03  0.00000000000E+00 0.  1.
         21   -1    0    0  502  503 -0.00000000000E+00 -0.00000000000E+00 -0.41308033951E+01  0.41308033951E+01  0.00000000000E+00 0.  1.
          1    1    1    2  501    0  0.53564676840E+01 -0.23852292131E+02  0.65126558847E+02  0.69563584246E+02  0.00000000000E+00 0.  1.
         -1    1    1    2    0  503 -0.53564676840E+01  0.23852292131E+02  0.76216989992E+02  0.80041571382E+02  0.00000000000E+00 0. -1.
<mgrwt>
<rscale>  2 0.24446341E+02</rscale>
<asrwt>0</asrwt>
<pdfrwt beam="1">  1       21 0.22380666E-01 0.24446341E+02</pdfrwt>
<pdfrwt beam="2">  1       21 0.63550833E-03 0.24446341E+02</pdfrwt>
<totfact> 0.10115066E+08</totfact>
</mgrwt>
</event>
<event>
 4    1  0.7424968E+004  0.2097284E+02  0.7546771E-02  0.1726647E+00
         21   -1    0    0  503  502  0.00000000000E+00  0.00000000000E+00  0.29708316770E+01  0.29708316770E+01  0.00000000000E+00 0. -1.
         21   -1    0    0  501  503 -0.00000000000E+00 -0.00000000000E+00 -0.14938404398E+03  0.14938404398E+03  0.00000000000E+00 0. -1.
          2    1    1    2  501    0  0.16495371805E+02 -0.12952320647E+02 -0.80379671276E+02  0.83070761737E+02  0.00000000000E+00 0.  1.
         -2    1    1    2    0  502 -0.16495371805E+02  0.12952320647E+02 -0.66033541027E+02  0.69284113920E+02  0.00000000000E+00 0. -1.
<mgrwt>
<rscale>  2 0.20972837E+02</rscale>
<asrwt>0</asrwt>
<pdfrwt beam="1">  1       21 0.45705101E-03 0.20972837E+02</pdfrwt>
<pdfrwt beam="2">  1       21 0.22982161E-01 0.20972837E+02</pdfrwt>
<totfact> 0.15040021E+08</totfact>
</mgrwt>
</event>
<event>
 4    1  0.7424968E+004  0.2991261E+02  0.7546771E-02  0.1599057E+00
         21   -1    0    0  503  502  0.00000000000E+00  0.00000000000E+00  0.16913578536E+02  0.16913578536E+02  0.00000000000E+00 0. -1.
         21   -1    0    0  501  503 -0.00000000000E+00 -0.00000000000E+00 -0.63735385851E+02  0.63735385851E+02  0.00000000000E+00 0. -1.
          3    1    1    2  501    0  0.10075822662E+02  0.28164548148E+02 -0.40035779529E+02  0.49976270541E+02  0.00000000000E+00 0. -1.
         -3    1    1    2    0  502 -0.10075822662E+02 -0.28164548148E+02 -0.67860277849E+01  0.30672693846E+02  0.00000000000E+00 0.  1.
<mgrwt>
<rscale>  2 0.29912606E+02</rscale>
<asrwt>0</asrwt>
<pdfrwt beam="1">  1       21 0.26020891E-02 0.29912606E+02</pdfrwt>
<pdfrwt beam="2">  1       21 0.98054438E-02 0.29912606E+02</pdfrwt>
<totfact> 0.51114755E+07</totfact>
</mgrwt>
</event>
<event>
 4    1  0.7424968E+004  0.2330476E+02  0.7546771E-02  0.1686617E+00
         21   -1    0    0  503  502  0.00000000000E+00  0.00000000000E+00  0.40875971889E+02  0.40875971889E+02  0.00000000000E+00 0.  1.
         21   -1    0    0  501  503 -0.00000000000E+00 -0.00000000000E+00 -0.21616962430E+02  0.21616962430E+02  0.00000000000E+00 0.  1.
          2    1    1    2  501    0 -0.28393998942E+01  0.23131142833E+02  0.29026283961E+02  0.37224147016E+02  0.00000000000E+00 0.  1.
         -2    1    1    2    0  502  0.28393998942E+01 -0.23131142833E+02 -0.97672745016E+01  0.25268787302E+02  0.00000000000E+00 0. -1.
<mgrwt>
<rscale>  2 0.23304763E+02</rscale>
<asrwt>0</asrwt>
<pdfrwt beam="1">  1       21 0.62886110E-02 0.23304763E+02</pdfrwt>
<pdfrwt beam="2">  1       21 0.33256865E-02 0.23304763E+02</pdfrwt>
<totfact> 0.67849290E+07</totfact>
</mgrwt>
</event>
<event>
 4    1  0.7424968E+004  0.2572945E+02  0.7546771E-02  0.1650740E+00
         21   -1    0    0  501  502  0.00000000000E+00  0.00000000000E+00  0.16063750895E+03  0.16063750895E+03  0.00000000000E+00 0. -1.
         21   -1    0    0  502  503 -0.00000000000E+00 -0.00000000000E+00 -0.43761740046E+01  0.43761740046E+01  0.00000000000E+00 0. -1.
          1    1    1    2  501    0 -0.10249080447E+00  0.25729250299E+02  0.98049659585E+02  0.10136932756E+03  0.00000000000E+00 0. -1.
         -1    1    1    2    0  503  0.10249080447E+00 -0.25729250299E+02  0.58211675360E+02  0.63644355394E+02  0.00000000000E+00 0.  1.
<mgrwt>
<rscale>  2 0.25729454E+02</rscale>
<asrwt>0</asrwt>
<pdfrwt beam="1">  1       21 0.24713458E-01 0.25729454E+02</pdfrwt>
<pdfrwt beam="2">  1       21 0.67325766E-03 0.25729454E+02</pdfrwt>
<totfact> 0.78817328E+07</totfact>
</mgrwt>
</event>
<event>
 4    1  0.7424968E+004  0.2067753E+02  0.7546771E-02  0.1732181E+00
         21   -1    0    0  503  502  0.00000000000E+00  0.00000000000E+00  0.13781155533E+03  0.13781155533E+03  0.00000000000E+00 0. -1.
         21   -1    0    0  501  503 -0.00000000000E+00 -0.00000000000E+00 -0.32111433135E+01  0.32111433135E+01  0.00000000000E+00 0. -1.
          4    1    1    2  501    0 -0.17207028690E+02 -0.11466408627E+02  0.54330489063E+02  0.58132283672E+02  0.00000000000E+00 0.  1.
         -4    1    1    2    0  502  0.17207028690E+02  0.11466408627E+02  0.80269922950E+02  0.82890414968E+02  0.00000000000E+00 0. -1.
<mgrwt>
<rscale>  2 0.20677533E+02</rscale>
<asrwt>0</asrwt>
<pdfrwt beam="1">  1       21 0.21201773E-01 0.20677533E+02</pdfrwt>
<pdfrwt beam="2">  1       21 0.49402215E-03 0.20677533E+02</pdfrwt>
<totfact> 0.15389682E+08</totfact>
</mgrwt>
</event>
<event>
 4    1  0.7424968E+004  0.2726358E+02  0.7546771E-02  0.1630468E+00
         21   -1    0    0  501  502  0.00000000000E+00  0.00000000000E+00  0.32407022975E+03  0.32407022975E+03  0.00000000000E+00 0.  1.
         21   -1    0    0  502  503 -0.00000000000E+00 -0.00000000000E+00 -0.23732311004E+01  0.23732311004E+01  0.00000000000E+00 0.  1.
          1    1    1    2  501    0 -0.20571126236E+02  0.17892220132E+02  0.19073813114E+03  0.19267676935E+03  0.00000000000E+00 0.  1.
         -1    1    1    2    0  503  0.20571126236E+02 -0.17892220132E+02  0.13095886751E+03  0.13376669150E+03  0.00000000000E+00 0. -1.
<mgrwt>
<rscale>  2 0.27263580E+02</rscale>
<asrwt>0</asrwt>
<pdfrwt beam="1">  1       21 0.49856923E-01 0.27263580E+02</pdfrwt>
<pdfrwt beam="2">  1       21 0.36511273E-03 0.27263580E+02</pdfrwt>
<totfact> 0.53339897E+07</totfact>
</mgrwt>
</event>
<event>
 4    1  0.7424968E+004  0.2394570E+02  0.7546771E-02  0.1676624E+00
         21   -1    0    0  501  502  0.00000000000E+00  0.00000000000E+00  0.61928174301E+02  0.61928174301E+02  0.00000000000E+00 0. -1.
         21   -1    0    0  502  503 -0.00000000000E+00 -0.00000000000E+00 -0.11406650626E+02  0.11406650626E+02  0.00000000000E+00 0. -1.
          2    1    1    2  501    0  0.12428991426E+02  0.20467455862E+02  0.93505078033E+01  0.25706586189E+02  0.00000000000E+00 0. -1.
         -2    1    1    2    0  503 -0.12428991426E+02 -0.20467455862E+02  0.41171015872E+02  0.47628238738E+02  0.00000000000E+00 0.  1.
<mgrwt>
<rscale>  2 0.23945701E+02</rscale>
<asrwt>0</asrwt>
<pdfrwt beam="1">  1       21 0.95274113E-02 0.23945701E+02</pdfrwt>
<pdfrwt beam="2">  1       21 0.17548694E-02 0.23945701E+02</pdfrwt>
<totfact> 0.93314240E+07</totfact>
</mgrwt>
</event>
<event>
 4    1  0.7424968E+004  0.2368960E+02  0.7546771E-02  0.1680570E+00
         21   -1    0    0  503  502  0.00000000000E+00  0.00000000000E+00  0.77941962395E+02  0.77941962395E+02  0.00000000000E+00 0.  1.
         21   -1    0    0  501  503 -0.00000000000E+00 -0.00000000000E+00 -0.78570380101E+01  0.78570380101E+01  0.00000000000E+00 0.  1.
          3    1    1    2  501    0  0.27558441849E+01 -0.23528755902E+02  0.22638659359E+02  0.32767452282E+02  0.00000000000E+00 0. -1.
         -3    1    1    2    0  502 -0.27558441849E+01  0.23528755902E+02  0.47446265026E+02  0.53031548123E+02  0.00000000000E+00 0.  1.
<mgrwt>
<rscale>  2 0.23689598E+02</rscale>
<asrwt>0</asrwt>
<pdfrwt beam="1">  1       21 0.11991071E-01 0.23689598E+02</pdfrwt>
<pdfrwt beam="2">  1       21 0.12087751E-02 0.23689598E+02</pdfrwt>
<totfact> 0.11184694E+08</totfact>
</mgrwt>
</event>
<event>
 4    1  0.7424968E+004  0.3053354E+02  0.7546771E-02  0.1592265E+00
         21   -1    0    0  501  502  0.00000000000E+00  0.00000000000E+00  0.14676299527E+01  0.14676299527E+01  0.00000000000E+00 0.  1.
         21   -1    0    0  502  503 -0.00000000000E+00 -0.00000000000E+00 -0.20226775435E+04  0.20226775435E+04  0.00000000000E+00 0.  1.
          2    1    1    2  501    0  0.11424382096E+02  0.28315733107E+02 -0.17239067417E+03  0.17507381811E+03  0.00000000000E+00 0.  1.
         -2    1    1    2    0  503 -0.11424382096E+02 -0.28315733107E+02 -0.18488192394E+04  0.18490713554E+04  0.00000000000E+00 0. -1.
<mgrwt>
<rscale>  2 0.30533543E+02</rscale>
<asrwt>0</asrwt>
<pdfrwt beam="1">  1       21 0.22578815E-03 0.30533543E+02</pdfrwt>
<pdfrwt beam="2">  1       21 0.31118263E+00 0.30533543E+02</pdfrwt>
<totfact> 0.13135114E+06</totfact>
</mgrwt>
</event>
<event>
 4    1  0.7424968E+004  0.2029807E+02  0.7546771E-02  0.1739465E+00
         21   -1    0    0  501  502  0.00000000000E+00  0.00000000000E+00  0.28793850801E+01  0.28793850801E+01  0.00000000000E+00 0. -1.
         21   -1    0    0  502  503 -0.00000000000E+00 -0.00000000000E+00 -0.14837282471E+03  0.14837282471E+03  0.00000000000E+00 0. -1.
          3    1    1    2  501    0 -0.45985194634E+01 -0.19770315825E+02 -0.87016578920E+02  0.89352653996E+02  0.00000000000E+00 0.  1.
         -3    1    1    2    0  503  0.45985194634E+01  0.19770315825E+02 -0.58476860707E+02  0.61899555791E+02  0.00000000000E+00 0. -1.
<mgrwt>
<rscale>  2 0.20298073E+02</rscale>
<asrwt>0</asrwt>
<pdfrwt beam="1">  1       21 0.44298229E-03 0.20298073E+02</pdfrwt>
<pdfrwt beam="2">  1       21 0.22826590E-01 0.20298073E+02</pdfrwt>
<totfact> 0.15779967E+08</totfact>
</mgrwt>
</event>
<event>
 4    1  0.7424968E+004  0.2276300E+02  0.7546771E-02  0.1695381E+00
         21   -1    0    0  503  502  0.00000000000E+00  0.00000000000E+00  0.11619849473E+03  0.11619849473E+03  0.00000000000E+00 0. -1.
         21   -1    0    0  501  503 -0.00000000000E+00 -0.00000000000E+00 -0.44597393502E+01  0.44597393502E+01  0.00000000000E+00 0. -1.
          3    1    1    2  501    0  0.84715272349E+00  0.22747234512E+02  0.55216697226E+02  0.59724684999E+02  0.00000000000E+00 0.  1.
         -3    1    1    2    0  502 -0.84715272349E+00 -0.22747234512E+02  0.56522058151E+02  0.60933549078E+02  0.00000000000E+00 0. -1.
<mgrwt>
<rscale>  2 0.22763004E+02</rscale>
<asrwt>0</asrwt>
<pdfrwt beam="1">  1       21 0.17876689E-01 0.22763004E+02</pdfrwt>
<pdfrwt beam="2">  1       21 0.68611383E-03 0.22763004E+02</pdfrwt>
<totfact> 0.13101805E+08</totfact>
</mgrwt>
</event>
<event>
 4    1  0.7424968E+004  0.3227425E+02  0.7546771E-02  0.1574230E+00
         21   -1    0    0  501  502  0.00000000000E+00  0.00000000000E+00  0.42884440501E+03  0.42884440501E+03  0.00000000000E+00 0.  1.
         21   -1    0    0  502  503 -0.00000000000E+00 -0.00000000000E+00 -0.25652417378E+01  0.25652417378E+01  0.00000000000E+00 0.  1.
          4    1    1    2  501    0 -0.29969601255E+02 -0.11977073718E+02  0.26286559933E+03  0.26483948083E+03  0.00000000000E+00 0.  1.
         -4    1    1    2    0  503  0.29969601255E+02  0.11977073718E+02  0.16341356395E+03  0.16657016592E+03  0.00000000000E+00 0. -1.
<mgrwt>
<rscale>  2 0.32274251E+02</rscale>
<asrwt>0</asrwt>
<pdfrwt beam="1">  1       21 0.65976006E-01 0.32274251E+02</pdfrwt>
<pdfrwt beam="2">  1       21 0.39465291E-03 0.32274251E+02</pdfrwt>
<totfact> 0.27997658E+07</totfact>
</mgrwt>
</event>
<event>
 4    1  0.7424968E+004  0.2825617E+02  0.7546771E-02  0.1618205E+00
         21   -1    0    0  501  502  0.00000000000E+00  0.00000000000E+00  0.93814594381E+01  0.93814594381E+01  0.00000000000E+00 0. -1.
         21   -1    0    0  502  503 -0.00000000000E+00 -0.00000000000E+00 -0.10005557884E+03  0.10005557884E+03  0.00000000000E+00 0. -1.
          5    1    1    2  501    0  0.28056804763E+02 -0.33506818407E+01 -0.66488463235E+02  0.72243526393E+02  0.00000000000E+00 0.  1.
         -5    1    1    2    0  503 -0.28056804763E+02  0.33506818407E+01 -0.24185656172E+02  0.37193511890E+02  0.00000000000E+00 0. -1.
<mgrwt>
<rscale>  2 0.28256174E+02</rscale>
<asrwt>0</asrwt>
<pdfrwt beam="1">  1       21 0.14433015E-02 0.28256174E+02</pdfrwt>
<pdfrwt beam="2">  1       21 0.15393166E-01 0.28256174E+02</pdfrwt>
<totfact> 0.58452513E+07</totfact>
</mgrwt>
</event>
<event>
 4    1  0.7424968E+004  0.4776453E+02  0.7546771E-02  0.1457786E+00
         21   -1    0    0  503  502  0.00000000000E+00  0.00000000000E+00  0.22921281446E+01  0.22921281446E+01  0.00000000000E+00 0.  1.
         21   -1    0    0  501  503 -0.00000000000E+00 -0.00000000000E+00 -0.99534975614E+03  0.99534975614E+03  0.00000000000E+00 0.  1.
          5    1    1    2  501    0  0.36543621866E+02 -0.30757334625E+02 -0.49507958720E+03  0.49737837468E+03  0.00000000000E+00 0. -1.
         -5    1    1    2    0  502 -0.36543621866E+02  0.30757334625E+02 -0.49797804080E+03  0.50026350961E+03  0.00000000000E+00 0.  1.
<mgrwt>
<rscale>  2 0.47764526E+02</rscale>
<asrwt>0</asrwt>
<pdfrwt beam="1">  1       21 0.35263466E-03 0.47764526E+02</pdfrwt>
<pdfrwt beam="2">  1       21 0.15313092E+00 0.47764526E+02</pdfrwt>
<totfact> 0.52141826E+06</totfact>
</mgrwt>
</event>
<event>
 4    1  0.7424968E+004  0.2266334E+02  0.7546771E-02  0.1697026E+00
         21   -1    0    0  503  502  0.00000000000E+00  0.00000000000E+00  0.88585866498E+03  0.88585866498E+03  0.00000000000E+00 0.  1.
         21   -1    0    0  501  503 -0.00000000000E+00 -0.00000000000E+00 -0.58101934331E+00  0.58101934331E+00  0.00000000000E+00 0.  1.
          5    1    1    2  501    0  0.20311425877E+02 -0.10053508001E+02  0.42239283986E+03  0.42300039977E+03  0.00000000000E+00 0. -1.
         -5    1    1    2    0  502 -0.20311425877E+02  0.10053508001E+02  0.46288480578E+03  0.46343928455E+03  0.00000000000E+00 0.  1.
<mgrwt>
<rscale>  2 0.22663341E+02</rscale>
<asrwt>0</asrwt>
<pdfrwt beam="1">  1       21 0.13628487E+00 0.22663341E+02</pdfrwt>
<pdfrwt beam="2">  1       21 0.89388300E-04 0.22663341E+02</pdfrwt>
<totfact> 0.46272818E+07</totfact>
</mgrwt>
</event>
<event>
 4    1  0.7424968E+004  0.2193983E+02  0.7546771E-02  0.1709295E+00
         21   -1    0    0  503  502  0.00000000000E+00  0.00000000000E+00  0.81114635053E+03  0.81114635053E+03  0.00000000000E+00 0. -1.
         21   -1    0    0  501  503 -0.00000000000E+00 -0.00000000000E+00 -0.68071428971E+00  0.68071428971E+00  0.00000000000E+00 0. -1.
          4    1    1    2  501    0  0.18961097429E+02  0.11037790087E+02  0.55058681145E+03  0.55102376806E+03  0.00000000000E+00 0. -1.
         -4    1    1    2    0  502 -0.18961097429E+02 -0.11037790087E+02  0.25987882479E+03  0.26080329675E+03  0.00000000000E+00 0.  1.
<mgrwt>
<rscale>  2 0.21939827E+02</rscale>
<asrwt>0</asrwt>
<pdfrwt beam="1">  1       21 0.12479097E+00 0.21939827E+02</pdfrwt>
<pdfrwt beam="2">  1       21 0.10472592E-03 0.21939827E+02</pdfrwt>
<totfact> 0.44928205E+07</totfact>
</mgrwt>
</event>
<event>
 4    1  0.7424968E+004  0.2186429E+02  0.7546771E-02  0.1710610E+00
         21   -1    0    0  503  502  0.00000000000E+00  0.00000000000E+00  0.40294089190E+02  0.40294089190E+02  0.00000000000E+00 0. -1.
         21   -1    0    0  501  503 -0.00000000000E+00 -0.00000000000E+00 -0.13190695730E+02  0.13190695730E+02  0.00000000000E+00 0. -1.
          5    1    1    2  501    0 -0.20070799903E+02 -0.86723693855E+01  0.50704343368E+01  0.22444516120E+02  0.00000000000E+00 0.  1.
         -5    1    1    2    0  502  0.20070799903E+02  0.86723693855E+01  0.22032959123E+02  0.31040268801E+02  0.00000000000E+00 0. -1.
<mgrwt>
<rscale>  2 0.21864286E+02</rscale>
<asrwt>0</asrwt>
<pdfrwt beam="1">  1       21 0.61990906E-02 0.21864286E+02</pdfrwt>
<pdfrwt beam="2">  1       21 0.20293378E-02 0.21864286E+02</pdfrwt>
<totfact> 0.14642379E+08</totfact>
</mgrwt>
</event>
<event>
 4    1  0.7424968E+004  0.3599021E+02  0.7546771E-02  0.1539979E+00
         21   -1    0    0  501  502  0.00000000000E+00  0.00000000000E+00  0.42563283777E+03  0.42563283777E+03  0.00000000000E+00 0. -1.
         21   -1    0    0  502  503 -0.00000000000E+00 -0.00000000000E+00 -0.33859447550E+01  0.33859447550E+01  0.00000000000E+00 0. -1.
          3    1    1    2  501    0 -0.10184861313E+02 -0.34519031198E+02  0.27936961825E+03  0.28167832454E+03  0.00000000000E+00 0.  1.
         -3    1    1    2    0  503  0.10184861313E+02  0.34519031198E+02  0.14287727476E+03  0.14734045798E+03  0.00000000000E+00 0. -1.
<mgrwt>
<rscale>  2 0.35990206E+02</rscale>
<asrwt>0</asrwt>
<pdfrwt beam="1">  1       21 0.65481933E-01 0.35990206E+02</pdfrwt>
<pdfrwt beam="2">  1       21 0.52091491E-03 0.35990206E+02</pdfrwt>
<totfact> 0.19136806E+07</totfact>
</mgrwt>
</event>
<event>
 4    1  0.7424968E+004  0.5309558E+02  0.7546771E-02  0.1429326E+00
         21   -1    0    0  501  502  0.00000000000E+00  0.00000000000E+00  0.15132045371E+03  0.15132045371E+03  0.00000000000E+00 0. -1.
         21   -1    0    0  502  503 -0.00000000000E+00 -0.00000000000E+00 -0.29312802719E+02  0.29312802719E+02  0.00000000000E+00 0. -1.
          1    1    1    2  501    0 -0.48160987477E+01 -0.52876707080E+02  0.11552637460E+03  0.12714355740E+03  0.00000000000E+00 0. -1.
         -1    1    1    2    0  503  0.48160987477E+01  0.52876707080E+02  0.64812763868E+01  0.53489699031E+02  0.00000000000E+00 0.  1.
<mgrwt>
<rscale>  2 0.53095583E+02</rscale>
<asrwt>0</asrwt>
<pdfrwt beam="1">  1       21 0.23280069E-01 0.53095583E+02</pdfrwt>
<pdfrwt beam="2">  1       21 0.45096620E-02 0.53095583E+02</pdfrwt>
<totfact> 0.51417486E+06</totfact>
</mgrwt>
</event>
<event>
 4    1  0.7424968E+004  0.2010212E+02  0.7546771E-02  0.1743305E+00
         21   -1    0    0  501  502  0.00000000000E+00  0.00000000000E+00  0.54137695759E+01  0.54137695759E+01  0.00000000000E+00 0.  1.
         21   -1    0    0  502  503 -0.00000000000E+00 -0.00000000000E+00 -0.79459775928E+02  0.79459775928E+02  0.00000000000E+00 0.  1.
          2    1    1    2  501    0  0.15326341214E+02 -0.13007629581E+02 -0.26573703033E+02  0.33320517031E+02  0.00000000000E+00 0.  1.
         -2    1    1    2    0  503 -0.15326341214E+02  0.13007629581E+02 -0.47472303319E+02  0.51553028473E+02  0.00000000000E+00 0. -1.
<mgrwt>
<rscale>  2 0.20102118E+02</rscale>
<asrwt>0</asrwt>
<pdfrwt beam="1">  1       21 0.83288766E-03 0.20102118E+02</pdfrwt>
<pdfrwt beam="2">  1       21 0.12224580E-01 0.20102118E+02</pdfrwt>
<totfact> 0.18020193E+08</totfact>
</mgrwt>
</event>
<event>
 4    1  0.7424968E+004  0.5524090E+02  0.7546771E-02  0.1418963E+00
         21   -1    0    0  501  502  0.00000000000E+00  0.00000000000E+00  0.30554675890E+03  0.30554675890E+03  0.00000000000E+00 0. -1.
         21   -1    0    0  502  503 -0.00000000000E+00 -0.00000000000E+00 -0.10084593948E+02  0.10084593948E+02  0.00000000000E+00 0. -1.
          4    1    1    2  501    0 -0.54469851429E+02  0.91973866129E+01  0.16324018229E+03  0.17233372784E+03  0.00000000000E+00 0.  1.
         -4    1    1    2    0  503  0.54469851429E+02 -0.91973866129E+01  0.13222198266E+03  0.14329762501E+03  0.00000000000E+00 0. -1.
<mgrwt>
<rscale>  2 0.55240896E+02</rscale>
<asrwt>0</asrwt>
<pdfrwt beam="1">  1       21 0.47007187E-01 0.55240896E+02</pdfrwt>
<pdfrwt beam="2">  1       21 0.15514762E-02 0.55240896E+02</pdfrwt>
<totfact> 0.74329852E+06</totfact>
</mgrwt>
</event>
<event>
 4    1  0.7424968E+004  0.2022591E+02  0.7546771E-02  0.1740872E+00
         21   -1    0    0  503  502  0.00000000000E+00  0.00000000000E+00  0.26131620076E+01  0.26131620076E+01  0.00000000000E+00 0.  1.
         21   -1    0    0  501  503 -0.00000000000E+00 -0.00000000000E+00 -0.27343282398E+03  0.27343282398E+03  0.00000000000E+00 0.  1.
          1    1    1    2  501    0  0.10040452985E+02  0.17557813008E+02 -0.45168890928E+02  0.49490566793E+02  0.00000000000E+00 0. -1.
         -1    1    1    2    0  502 -0.10040452985E+02 -0.17557813008E+02 -0.22565077105E+03  0.22655541920E+03  0.00000000000E+00 0.  1.
<mgrwt>
<rscale>  2 0.20225911E+02</rscale>
<asrwt>0</asrwt>
<pdfrwt beam="1">  1       21 0.40202486E-03 0.20225911E+02</pdfrwt>
<pdfrwt beam="2">  1       21 0.42066595E-01 0.20225911E+02</pdfrwt>
<totfact> 0.59808069E+07</totfact>
</mgrwt>
</event>
<event>
 4    1  0.7424968E+004  0.2343017E+02  0.7546771E-02  0.1684631E+00
         21   -1    0    0  501  502  0.00000000000E+00  0.00000000000E+00  0.18249190077E+02  0.18249190077E+02  0.00000000000E+00 0.  1.
         21   -1    0    0  502  503 -0.00000000000E+00 -0.00000000000E+00 -0.30545850010E+02  0.30545850010E+02  0.00000000000E+00 0.  1.
          2    1    1    2  501    0 -0.12007884041E+01 -0.23399375793E+02 -0.31419463585E+01  0.23639892285E+02  0.00000000000E+00 0. -1.
         -2    1    1    2    0  503  0.12007884041E+01  0.23399375793E+02 -0.91547135740E+01  0.25155147802E+02  0.00000000000E+00 0.  1.
<mgrwt>
<rscale>  2 0.23430166E+02</rscale>
<asrwt>0</asrwt>
<pdfrwt beam="1">  1       21 0.28075677E-02 0.23430166E+02</pdfrwt>
<pdfrwt beam="2">  1       21 0.46993615E-02 0.23430166E+02</pdfrwt>
<totfact> 0.14101610E+08</totfact>
</mgrwt>
</event>
<event>
 4    1  0.7424968E+004  0.2057938E+02  0.7546771E-02  0.1734046E+00
         21   -1    0    0  501  502  0.00000000000E+00  0.00000000000E+00  0.81086181346E+01  0.81086181346E+01  0.00000000000E+00 0.  1.
         21   -1    0    0  502  503 -0.00000000000E+00 -0.00000000000E+00 -0.62591681642E+02  0.62591681642E+02  0.00000000000E+00 0.  1.
          2    1    1    2  501    0  0.74361272717E+01  0.19188922146E+02 -0.12858372699E+02  0.24266200164E+02  0.00000000000E+00 0. -1.
         -2    1    1    2    0  503 -0.74361272717E+01 -0.19188922146E+02 -0.41624690808E+02  0.46434099613E+02  0.00000000000E+00 0.  1.
<mgrwt>
<rscale>  2 0.20579376E+02</rscale>
<asrwt>0</asrwt>
<pdfrwt beam="1">  1       21 0.12474798E-02 0.20579376E+02</pdfrwt>
<pdfrwt beam="2">  1       21 0.96294892E-02 0.20579376E+02</pdfrwt>
<totfact> 0.14720808E+08</totfact>
</mgrwt>
</event>
<event>
 4    1  0.7424968E+004  0.3380463E+02  0.7546771E-02  0.1559479E+00
         21   -1    0    0  503  502  0.00000000000E+00  0.00000000000E+00  0.16935948997E+02  0.16935948997E+02  0.00000000000E+00 0. -1.
         21   -1    0    0  501  503 -0.00000000000E+00 -0.00000000000E+00 -0.73707677955E+02  0.73707677955E+02  0.00000000000E+00 0. -1.
          1    1    1    2  501    0  0.94142975303E+01 -0.32467276107E+02 -0.41565049396E+02  0.53576173315E+02  0.00000000000E+00 0.  1.
         -1    1    1    2    0  502 -0.94142975303E+01  0.32467276107E+02 -0.15206679562E+02  0.37067453637E+02  0.00000000000E+00 0. -1.
<mgrwt>
<rscale>  2 0.33804630E+02</rscale>
<asrwt>0</asrwt>
<pdfrwt beam="1">  1       21 0.26055306E-02 0.33804630E+02</pdfrwt>
<pdfrwt beam="2">  1       21 0.11339643E-01 0.33804630E+02</pdfrwt>
<totfact> 0.40986123E+07</totfact>
</mgrwt>
</event>
<event>
 4    1  0.7424968E+004  0.2240648E+02  0.7546771E-02  0.1701315E+00
         21   -1    0    0  501  502  0.00000000000E+00  0.00000000000E+00  0.60705468523E+02  0.60705468523E+02  0.00000000000E+00 0. -1.
         21   -1    0    0  502  503 -0.00000000000E+00 -0.00000000000E+00 -0.83406504638E+01  0.83406504638E+01  0.00000000000E+00 0. -1.
          3    1    1    2  501    0 -0.22346262598E+02  0.16416557188E+01  0.23011075177E+02  0.32117908811E+02  0.00000000000E+00 0.  1.
         -3    1    1    2    0  503  0.22346262598E+02 -0.16416557188E+01  0.29353742882E+02  0.36928210176E+02  0.00000000000E+00 0. -1.
<mgrwt>
<rscale>  2 0.22406483E+02</rscale>
<asrwt>0</asrwt>
<pdfrwt beam="1">  1       21 0.93393026E-02 0.22406483E+02</pdfrwt>
<pdfrwt beam="2">  1       21 0.12831770E-02 0.22406483E+02</pdfrwt>
<totfact> 0.15224535E+08</totfact>
</mgrwt>
</event>
<event>
 4    1  0.7424968E+004  0.2488143E+02  0.7546771E-02  0.1662711E+00
         21   -1    0    0  501  502  0.00000000000E+00  0.00000000000E+00  0.80491194902E+02  0.80491194902E+02  0.00000000000E+00 0.  1.
         21   -1    0    0  502  503 -0.00000000000E+00 -0.00000000000E+00 -0.78479873877E+01  0.78479873877E+01  0.00000000000E+00 0.  1.
          1    1    1    2  501    0 -0.23136405474E+02  0.91538153561E+01  0.42561798079E+02  0.49301037003E+02  0.00000000000E+00 0. -1.
         -1    1    1    2    0  503  0.23136405474E+02 -0.91538153561E+01  0.30081409436E+02  0.39038145287E+02  0.00000000000E+00 0.  1.
<mgrwt>
<rscale>  2 0.24881431E+02</rscale>
<asrwt>0</asrwt>
<pdfrwt beam="1">  1       21 0.12383260E-01 0.24881431E+02</pdfrwt>
<pdfrwt beam="2">  1       21 0.12073827E-02 0.24881431E+02</pdfrwt>
<totfact> 0.10759691E+08</totfact>
</mgrwt>
</event>
<event>
 4    1  0.7424968E+004  0.2024537E+02  0.7546771E-02  0.1740492E+00
         21   -1    0    0  501  502  0.00000000000E+00  0.00000000000E+00  0.75474477152E+01  0.75474477152E+01  0.00000000000E+00 0.  1.
         21   -1    0    0  502  503 -0.00000000000E+00 -0.00000000000E+00 -0.54651077014E+02  0.54651077014E+02  0.00000000000E+00 0.  1.
          4    1    1    2  501    0  0.19472501589E+02 -0.55404761443E+01 -0.26021359195E+02  0.32969475707E+02  0.00000000000E+00 0.  1.
         -4    1    1    2    0  503 -0.19472501589E+02  0.55404761443E+01 -0.21082270104E+02  0.29229049022E+02  0.00000000000E+00 0. -1.
<mgrwt>
<rscale>  2 0.20245375E+02</rscale>
<asrwt>0</asrwt>
<pdfrwt beam="1">  1       21 0.11611458E-02 0.20245375E+02</pdfrwt>
<pdfrwt beam="2">  1       21 0.84078581E-02 0.20245375E+02</pdfrwt>
<totfact> 0.20363615E+08</totfact>
</mgrwt>
</event>
<event>
 4    1  0.7424968E+004  0.4608012E+02  0.7546771E-02  0.1467709E+00
         21   -1    0    0  503  502  0.00000000000E+00  0.00000000000E+00  0.31133522194E+01  0.31133522194E+01  0.00000000000E+00 0. -1.
         21   -1    0    0  501  503 -0.00000000000E+00 -0.00000000000E+00 -0.87160895252E+03  0.87160895252E+03  0.00000000000E+00 0. -1.
          5    1    1    2  501    0 -0.13660115325E+02  0.44008852776E+02 -0.23027022620E+03  0.23483559132E+03  0.00000000000E+00 0. -1.
         -5    1    1    2    0  502  0.13660115325E+02 -0.44008852776E+02 -0.63822537410E+03  0.63988671342E+03  0.00000000000E+00 0.  1.
<mgrwt>
<rscale>  2 0.46080124E+02</rscale>
<asrwt>0</asrwt>
<pdfrwt beam="1">  1       21 0.47897726E-03 0.46080124E+02</pdfrwt>
<pdfrwt beam="2">  1       21 0.13409369E+00 0.46080124E+02</pdfrwt>
<totfact> 0.45441588E+06</totfact>
</mgrwt>
</event>
<event>
 4    1  0.7424968E+004  0.2006930E+02  0.7546771E-02  0.1743953E+00
         21   -1    0    0  503  502  0.00000000000E+00  0.00000000000E+00  0.10569030406E+01  0.10569030406E+01  0.00000000000E+00 0.  1.
         21   -1    0    0  501  503 -0.00000000000E+00 -0.00000000000E+00 -0.42272888897E+03  0.42272888897E+03  0.00000000000E+00 0.  1.
          5    1    1    2  501    0  0.19314147392E+02 -0.54534968016E+01 -0.14433526069E+03  0.14572386351E+03  0.00000000000E+00 0. -1.
         -5    1    1    2    0  502 -0.19314147392E+02  0.54534968016E+01 -0.27733672523E+03  0.27806192850E+03  0.00000000000E+00 0.  1.
<mgrwt>
<rscale>  2 0.20069303E+02</rscale>
<asrwt>0</asrwt>
<pdfrwt beam="1">  1       21 0.16260022E-03 0.20069303E+02</pdfrwt>
<pdfrwt beam="2">  1       21 0.65035313E-01 0.20069303E+02</pdfrwt>
<totfact> 0.94558626E+07</totfact>
</mgrwt>
</event>
<event>
 4    1  0.7424968E+004  0.2316980E+02  0.7546771E-02  0.1688772E+00
         21   -1    0    0  501  502  0.00000000000E+00  0.00000000000E+00  0.60490262310E+02  0.60490262310E+02  0.00000000000E+00 0. -1.
         21   -1    0    0  502  503 -0.00000000000E+00 -0.00000000000E+00 -0.10021465230E+02  0.10021465230E+02  0.00000000000E+00 0. -1.
          3    1    1    2  501    0  0.20677764020E+02 -0.10453204296E+02  0.37160067200E+02  0.43791665865E+02  0.00000000000E+00 0.  1.
         -3    1    1    2    0  503 -0.20677764020E+02  0.10453204296E+02  0.13308729879E+02  0.26720061675E+02  0.00000000000E+00 0. -1.
<mgrwt>
<rscale>  2 0.23169795E+02</rscale>
<asrwt>0</asrwt>
<pdfrwt beam="1">  1       21 0.93061940E-02 0.23169795E+02</pdfrwt>
<pdfrwt beam="2">  1       21 0.15417639E-02 0.23169795E+02</pdfrwt>
<totfact> 0.11708028E+08</totfact>
</mgrwt>
</event>
<event>
 4    1  0.7424968E+004  0.2022475E+02  0.7546771E-02  0.1740895E+00
         21   -1    0    0  501  502  0.00000000000E+00  0.00000000000E+00  0.13011876849E+02  0.13011876849E+02  0.00000000000E+00 0. -1.
         21   -1    0    0  502  503 -0.00000000000E+00 -0.00000000000E+00 -0.33164127696E+02  0.33164127696E+02  0.00000000000E+00 0. -1.
          4    1    1    2  501    0  0.89615545071E+01 -0.18130944933E+02 -0.48056826504E+01  0.20787862061E+02  0.00000000000E+00 0.  1.
         -4    1    1    2    0  503 -0.89615545071E+01  0.18130944933E+02 -0.15346568197E+02  0.25388142484E+02  0.00000000000E+00 0. -1.
<mgrwt>
<rscale>  2 0.20224753E+02</rscale>
<asrwt>0</asrwt>
<pdfrwt beam="1">  1       21 0.20018272E-02 0.20224753E+02</pdfrwt>
<pdfrwt beam="2">  1       21 0.51021735E-02 0.20224753E+02</pdfrwt>
<totfact> 0.19904284E+08</totfact>
</mgrwt>
</event>
<event>
 4    1  0.7424968E+004  0.3235913E+02  0.7546771E-02  0.1573386E+00
         21   -1    0    0  503  502  0.00000000000E+00  0.00000000000E+00  0.35677220637E+02  0.35677220637E+02  0.00000000000E+00 0. -1.
         21   -1    0    0  501  503 -0.00000000000E+00 -0.00000000000E+00 -0.30177546015E+02  0.30177546015E+02  0.00000000000E+00 0. -1.
          4    1    1    2  501    0  0.25242634515E+02 -0.20246540826E+02 -0.27040977537E+01  0.32471913361E+02  0.00000000000E+00 0. -1.
         -4    1    1    2    0  502 -0.25242634515E+02  0.20246540826E+02  0.82037723758E+01  0.33382853291E+02  0.00000000000E+00 0.  1.
<mgrwt>
<rscale>  2 0.32359126E+02</rscale>
<asrwt>0</asrwt>
<pdfrwt beam="1">  1       21 0.54888032E-02 0.32359126E+02</pdfrwt>
<pdfrwt beam="2">  1       21 0.46426994E-02 0.32359126E+02</pdfrwt>
<totfact> 0.53909911E+07</totfact>
</mgrwt>
</event>
<event>
 4    1  0.7424968E+004  0.2275811E+02  0.7546771E-02  0.1695461E+00
         21   -1    0    0  501  502  0.00000000000E+00  0.00000000000E+00  0.28084026725E+01  0.28084026725E+01  0.00000000000E+00 0.  1.
         21   -1    0    0  502  503 -0.00000000000E+00 -0.00000000000E+00 -0.25858356804E+03  0.25858356804E+03  0.00000000000E+00 0.  1.
          3    1    1    2  501    0 -0.44746903087E+01 -0.22313871190E+02 -0.19787996157E+03  0.19918436407E+03  0.00000000000E+00 0. -1.
         -3    1    1    2    0  503  0.44746903087E+01  0.22313871190E+02 -0.57895203796E+02  0.62207606636E+02  0.00000000000E+00 0.  1.
<mgrwt>
<rscale>  2 0.22758113E+02</rscale>
<asrwt>0</asrwt>
<pdfrwt beam="1">  1       21 0.43206188E-03 0.22758113E+02</pdfrwt>
<pdfrwt beam="2">  1       21 0.39782094E-01 0.22758113E+02</pdfrwt>
<totfact> 0.61595859E+07</totfact>
</mgrwt>
</event>
<event>
 4    1  0.7424968E+004  0.2399328E+02  0.7546771E-02  0.1675897E+00
         21   -1    0    0  501  502  0.00000000000E+00  0.00000000000E+00  0.13782238332E+02  0.13782238332E+02  0.00000000000E+00 0. -1.
         21   -1    0    0  502  503 -0.00000000000E+00 -0.00000000000E+00 -0.42467905053E+02  0.42467905053E+02  0.00000000000E+00 0. -1.
          4    1    1    2  501    0  0.37322234813E-01 -0.23993250718E+02 -0.10736126557E+02  0.26285773460E+02  0.00000000000E+00 0. -1.
         -4    1    1    2    0  503 -0.37322234813E-01  0.23993250718E+02 -0.17949540164E+02  0.29964369926E+02  0.00000000000E+00 0.  1.
<mgrwt>
<rscale>  2 0.23993280E+02</rscale>
<asrwt>0</asrwt>
<pdfrwt beam="1">  1       21 0.21203444E-02 0.23993280E+02</pdfrwt>
<pdfrwt beam="2">  1       21 0.65335237E-02 0.23993280E+02</pdfrwt>
<totfact> 0.12932915E+08</totfact>
</mgrwt>
</event>
<event>
 4    1  0.7424968E+004  0.2621017E+02  0.7546771E-02  0.1644204E+00
         21   -1    0    0  501  502  0.00000000000E+00  0.00000000000E+00  0.11879084297E+02  0.11879084297E+02  0.00000000000E+00 0. -1.
         21   -1    0    0  502  503 -0.00000000000E+00 -0.00000000000E+00 -0.61664407071E+02  0.61664407071E+02  0.00000000000E+00 0. -1.
          5    1    1    2  501    0  0.13861575128E+01 -0.26173491505E+02 -0.15723720736E+02  0.30564824292E+02  0.00000000000E+00 0.  1.
         -5    1    1    2    0  503 -0.13861575128E+01  0.26173491505E+02 -0.34061602038E+02  0.42978667076E+02  0.00000000000E+00 0. -1.
<mgrwt>
<rscale>  2 0.26210172E+02</rscale>
<asrwt>0</asrwt>
<pdfrwt beam="1">  1       21 0.18275515E-02 0.26210172E+02</pdfrwt>
<pdfrwt beam="2">  1       21 0.94868317E-02 0.26210172E+02</pdfrwt>
<totfact> 0.90438225E+07</totfact>
</mgrwt>
</event>
<event>
 4    1  0.7424968E+004  0.2045358E+02  0.7546771E-02  0.1736456E+00
         21   -1    0    0  501  502  0.00000000000E+00  0.00000000000E+00  0.92482994441E+01  0.92482994441E+01  0.00000000000E+00 0.  1.
         21   -1    0    0  502  503 -0.00000000000E+00 -0.00000000000E+00 -0.16652440464E+03  0.16652440464E+03  0.00000000000E+00 0.  1.
          1    1    1    2  501    0 -0.18877191667E+02 -0.78740345481E+01 -0.36324773472E+01  0.20773629365E+02  0.00000000000E+00 0. -1.
         -1    1    1    2    0  503  0.18877191667E+02  0.78740345481E+01 -0.15364362784E+03  0.15499907471E+03  0.00000000000E+00 0.  1.
<mgrwt>
<rscale>  2 0.20453576E+02</rscale>
<asrwt>0</asrwt>
<pdfrwt beam="1">  1       21 0.14228154E-02 0.20453576E+02</pdfrwt>
<pdfrwt beam="2">  1       21 0.25619137E-01 0.20453576E+02</pdfrwt>
<totfact> 0.22755137E+07</totfact>
</mgrwt>
</event>
<event>
 4    1  0.7424968E+004  0.2567580E+02  0.7546771E-02  0.1651481E+00
         21   -1    0    0  501  502  0.00000000000E+00  0.00000000000E+00  0.15200741016E+02  0.15200741016E+02  0.00000000000E+00 0. -1.
         21   -1    0    0  502  503 -0.00000000000E+00 -0.00000000000E+00 -0.57461381403E+02  0.57461381403E+02  0.00000000000E+00 0. -1.
          5    1    1    2  501    0  0.25425526221E+02  0.35761907151E+01 -0.31384386308E+01  0.25866896232E+02  0.00000000000E+00 0. -1.
         -5    1    1    2    0  503 -0.25425526221E+02 -0.35761907151E+01 -0.39122201755E+02  0.46795226186E+02  0.00000000000E+00 0.  1.
<mgrwt>
<rscale>  2 0.25675796E+02</rscale>
<asrwt>0</asrwt>
<pdfrwt beam="1">  1       21 0.23385755E-02 0.25675796E+02</pdfrwt>
<pdfrwt beam="2">  1       21 0.88402126E-02 0.25675796E+02</pdfrwt>
<totfact> 0.69110942E+07</totfact>
</mgrwt>
</event>
<event>
 4    1  0.7424968E+004  0.2293597E+02  0.7546771E-02  0.1692550E+00
         21   -1    0    0  501  502  0.00000000000E+00  0.00000000000E+00  0.15449696507E+04  0.15449696507E+04  0.00000000000E+00 0.  1.
         21   -1    0    0  502  503 -0.00000000000E+00 -0.00000000000E+00 -0.41883936339E+00  0.41883936339E+00  0.00000000000E+00 0.  1.
          4    1    1    2  501    0 -0.20100380866E+02  0.11046864914E+02  0.43809539768E+03  0.43869537951E+03  0.00000000000E+00 0. -1.
         -4    1    1    2    0  503  0.20100380866E+02 -0.11046864914E+02  0.11064554137E+04  0.11066931106E+04  0.00000000000E+00 0.  1.
<mgrwt>
<rscale>  2 0.22935966E+02</rscale>
<asrwt>0</asrwt>
<pdfrwt beam="1">  1       21 0.23768308E+00 0.22935966E+02</pdfrwt>
<pdfrwt beam="2">  1       21 0.64438062E-04 0.22935966E+02</pdfrwt>
<totfact> 0.18296382E+07</totfact>
</mgrwt>
</event>
<event>
 4    1  0.7424968E+004  0.2245496E+02  0.7546771E-02  0.1700500E+00
         21   -1    0    0  503  502  0.00000000000E+00  0.00000000000E+00  0.25304658207E+04  0.25304658207E+04  0.00000000000E+00 0. -1.
         21   -1    0    0  501  503 -0.00000000000E+00 -0.00000000000E+00 -0.19932132263E+00  0.19932132263E+00  0.00000000000E+00 0. -1.
          4    1    1    2  501    0 -0.22389933946E+02  0.17076960706E+01  0.12432813389E+04  0.12434841024E+04  0.00000000000E+00 0.  1.
         -4    1    1    2    0  502  0.22389933946E+02 -0.17076960706E+01  0.12869851605E+04  0.12871810396E+04  0.00000000000E+00 0. -1.
<mgrwt>
<rscale>  2 0.22454963E+02</rscale>
<asrwt>0</asrwt>
<pdfrwt beam="1">  1       21 0.38927671E+00 0.22454963E+02</pdfrwt>
<pdfrwt beam="2">  1       21 0.30666845E-04 0.22454963E+02</pdfrwt>
<totfact> 0.92226468E+06</totfact>
</mgrwt>
</event>
<event>
 4    1  0.7424968E+004  0.3560425E+02  0.7546771E-02  0.1543299E+00
         21   -1    0    0  503  502  0.00000000000E+00  0.00000000000E+00  0.25226770318E+03  0.25226770318E+03  0.00000000000E+00 0.  1.
         21   -1    0    0  501  503 -0.00000000000E+00 -0.00000000000E+00 -0.50673987741E+01  0.50673987741E+01  0.00000000000E+00 0.  1.
          3    1    1    2  501    0 -0.30655153283E+02  0.18108674293E+02  0.13535999877E+03  0.13996425177E+03  0.00000000000E+00 0.  1.
         -3    1    1    2    0  502  0.30655153283E+02 -0.18108674293E+02  0.11184030564E+03  0.11737085018E+03  0.00000000000E+00 0. -1.
<mgrwt>
<rscale>  2 0.35604248E+02</rscale>
<asrwt>0</asrwt>
<pdfrwt beam="1">  1       21 0.38810406E-01 0.35604248E+02</pdfrwt>
<pdfrwt beam="2">  1       21 0.77960001E-03 0.35604248E+02</pdfrwt>
<totfact> 0.29392628E+07</totfact>
</mgrwt>
</event>
<event>
 4    1  0.7424968E+004  0.2047958E+02  0.7546771E-02  0.1735956E+00
         21   -1    0    0  501  502  0.00000000000E+00  0.00000000000E+00  0.59779824088E+02  0.59779824088E+02  0.00000000000E+00 0.  1.
         21   -1    0    0  502  503 -0.00000000000E+00 -0.00000000000E+00 -0.89104251098E+01  0.89104251098E+01  0.00000000000E+00 0.  1.
          2    1    1    2  501    0  0.20443164879E+02 -0.12208084025E+01  0.95982356243E+01  0.22617238790E+02  0.00000000000E+00 0. -1.
         -2    1    1    2    0  503 -0.20443164879E+02  0.12208084025E+01  0.41271163354E+02  0.46073010407E+02  0.00000000000E+00 0.  1.
<mgrwt>
<rscale>  2 0.20479584E+02</rscale>
<asrwt>0</asrwt>
<pdfrwt beam="1">  1       21 0.91968957E-02 0.20479584E+02</pdfrwt>
<pdfrwt beam="2">  1       21 0.13708347E-02 0.20479584E+02</pdfrwt>
<totfact> 0.13749880E+08</totfact>
</mgrwt>
</event>
<event>
 4    1  0.7424968E+004  0.2197165E+02  0.7546771E-02  0.1708743E+00
         21   -1    0    0  501  502  0.00000000000E+00  0.00000000000E+00  0.20225868136E+01  0.20225868136E+01  0.00000000000E+00 0. -1.
         21   -1    0    0  502  503 -0.00000000000E+00 -0.00000000000E+00 -0.23907848921E+03  0.23907848921E+03  0.00000000000E+00 0. -1.
          1    1    1    2  501    0 -0.21958916504E+02  0.74799918996E+00 -0.12344193393E+03  0.12538207435E+03  0.00000000000E+00 0. -1.
         -1    1    1    2    0  503  0.21958916504E+02 -0.74799918996E+00 -0.11361396847E+03  0.11571900167E+03  0.00000000000E+00 0.  1.
<mgrwt>
<rscale>  2 0.21971653E+02</rscale>
<asrwt>0</asrwt>
<pdfrwt beam="1">  1       21 0.31116718E-03 0.21971653E+02</pdfrwt>
<pdfrwt beam="2">  1       21 0.36781308E-01 0.21971653E+02</pdfrwt>
<totfact> 0.11422660E+08</totfact>
</mgrwt>
</event>
<event>
 4    1  0.7424968E+004  0.3733989E+02  0.7546771E-02  0.1528752E+00
         21   -1    0    0  501  502  0.00000000000E+00  0.00000000000E+00  0.23399262342E+02  0.23399262342E+02  0.00000000000E+00 0.  1.
         21   -1    0    0  502  503 -0.00000000000E+00 -0.00000000000E+00 -0.82777943941E+02  0.82777943941E+02  0.00000000000E+00 0.  1.
          5    1    1    2  501    0 -0.32885747373E+02  0.17686021238E+02 -0.15889186304E+01  0.37373685796E+02  0.00000000000E+00 0. -1.
         -5    1    1    2    0  503  0.32885747373E+02 -0.17686021238E+02 -0.57789762969E+02  0.68803520488E+02  0.00000000000E+00 0.  1.
<mgrwt>
<rscale>  2 0.37339895E+02</rscale>
<asrwt>0</asrwt>
<pdfrwt beam="1">  1       21 0.35998866E-02 0.37339895E+02</pdfrwt>
<pdfrwt beam="2">  1       21 0.12735068E-01 0.37339895E+02</pdfrwt>
<totfact> 0.20532872E+07</totfact>
</mgrwt>
</event>
<event>
 4    1  0.7424968E+004  0.2088047E+02  0.7546771E-02  0.1728365E+00
         21   -1    0    0  501  502  0.00000000000E+00  0.00000000000E+00  0.82062064254E+00  0.82062064254E+00  0.00000000000E+00 0.  1.
         21   -1    0    0  502  503 -0.00000000000E+00 -0.00000000000E+00 -0.53643038654E+03  0.53643038654E+03  0.00000000000E+00 0.  1.
          3    1    1    2  501    0  0.13956075489E+02  0.15531321569E+02 -0.24152907481E+03  0.24242996509E+03  0.00000000000E+00 0.  1.
         -3    1    1    2    0  503 -0.13956075489E+02 -0.15531321569E+02 -0.29408069109E+03  0.29482104210E+03  0.00000000000E+00 0. -1.
<mgrwt>
<rscale>  2 0.20880469E+02</rscale>
<asrwt>0</asrwt>
<pdfrwt beam="1">  1       21 0.12624917E-03 0.20880469E+02</pdfrwt>
<pdfrwt beam="2">  1       21 0.82527858E-01 0.20880469E+02</pdfrwt>
<totfact> 0.84036337E+07</totfact>
</mgrwt>
</event>
<event>
 4    1  0.7424968E+004  0.2417971E+02  0.7546771E-02  0.1673071E+00
         21   -1    0    0  503  502  0.00000000000E+00  0.00000000000E+00  0.46714887725E+02  0.46714887725E+02  0.00000000000E+00 0.  1.
         21   -1    0    0  501  503 -0.00000000000E+00 -0.00000000000E+00 -0.15228021622E+02  0.15228021622E+02  0.00000000000E+00 0.  1.
          4    1    1    2  501    0  0.44966937142E+01 -0.23757902579E+02  0.28815066850E+02  0.37616037362E+02  0.00000000000E+00 0. -1.
         -4    1    1    2    0  502 -0.44966937142E+01  0.23757902579E+02  0.26717992534E+01  0.24326871985E+02  0.00000000000E+00 0.  1.
<mgrwt>
<rscale>  2 0.24179706E+02</rscale>
<asrwt>0</asrwt>
<pdfrwt beam="1">  1       21 0.71869057E-02 0.24179706E+02</pdfrwt>
<pdfrwt beam="2">  1       21 0.23427726E-02 0.24179706E+02</pdfrwt>
<totfact> 0.95221681E+07</totfact>
</mgrwt>
</event>
<event>
 4    1  0.7424968E+004  0.5159120E+02  0.7546771E-02  0.1436943E+00
         21   -1    0    0  503  502  0.00000000000E+00  0.00000000000E+00  0.62141382309E+03  0.62141382309E+03  0.00000000000E+00 0. -1.
         21   -1    0    0  501  503 -0.00000000000E+00 -0.00000000000E+00 -0.43972027598E+01  0.43972027598E+01  0.00000000000E+00 0. -1.
          4    1    1    2  501    0 -0.41088253828E+02 -0.31199469941E+02  0.35888694051E+03  0.36257618178E+03  0.00000000000E+00 0.  1.
         -4    1    1    2    0  502  0.41088253828E+02  0.31199469941E+02  0.25812967982E+03  0.26323484407E+03  0.00000000000E+00 0. -1.
<mgrwt>
<rscale>  2 0.51591196E+02</rscale>
<asrwt>0</asrwt>
<pdfrwt beam="1">  1       21 0.95602057E-01 0.51591196E+02</pdfrwt>
<pdfrwt beam="2">  1       21 0.67649322E-03 0.51591196E+02</pdfrwt>
<totfact> 0.59561875E+06</totfact>
</mgrwt>
</event>
<event>
 4    1  0.7424968E+004  0.2239781E+02  0.7546771E-02  0.1701461E+00
         21   -1    0    0  503  502  0.00000000000E+00  0.00000000000E+00  0.26137585571E+02  0.26137585571E+02  0.00000000000E+00 0. -1.
         21   -1    0    0  501  503 -0.00000000000E+00 -0.00000000000E+00 -0.21386337757E+02  0.21386337757E+02  0.00000000000E+00 0. -1.
          1    1    1    2  501    0  0.16253300188E+02  0.15410783670E+02  0.99850899680E+01  0.24522725011E+02  0.00000000000E+00 0.  1.
         -1    1    1    2    0  502 -0.16253300188E+02 -0.15410783670E+02 -0.52338421547E+01  0.23001198317E+02  0.00000000000E+00 0. -1.
<mgrwt>
<rscale>  2 0.22397813E+02</rscale>
<asrwt>0</asrwt>
<pdfrwt beam="1">  1       21 0.40211670E-02 0.22397813E+02</pdfrwt>
<pdfrwt beam="2">  1       21 0.32902058E-02 0.22397813E+02</pdfrwt>
<totfact> 0.13901917E+08</totfact>
</mgrwt>
</event>
<event>
 4    1  0.7424968E+004  0.2764822E+02  0.7546771E-02  0.1625641E+00
         21   -1    0    0  501  502  0.00000000000E+00  0.00000000000E+00  0.52589169841E+02  0.52589169841E+02  0.00000000000E+00 0. -1.
         21   -1    0    0  502  503 -0.00000000000E+00 -0.00000000000E+00 -0.18932044005E+02  0.18932044005E+02  0.00000000000E+00 0. -1.
          2    1    1    2  501    0 -0.19347250361E+02 -0.19751144983E+02  0.34061080965E+02  0.43870047426E+02  0.00000000000E+00 0.  1.
         -2    1    1    2    0  503  0.19347250361E+02  0.19751144983E+02 -0.40395512912E+00  0.27651166420E+02  0.00000000000E+00 0. -1.
<mgrwt>
<rscale>  2 0.27648216E+02</rscale>
<asrwt>0</asrwt>
<pdfrwt beam="1">  1       21 0.80906415E-02 0.27648216E+02</pdfrwt>
<pdfrwt beam="2">  1       21 0.29126222E-02 0.27648216E+02</pdfrwt>
<totfact> 0.57849192E+07</totfact>
</mgrwt>
</event>
<event>
 4    1  0.7424968E+004  0.2502930E+02  0.7546771E-02  0.1660581E+00
         21   -1    0    0  501  502  0.00000000000E+00  0.00000000000E+00  0.39860852239E+03  0.39860852239E+03  0.00000000000E+00 0.  1.
         21   -1    0    0  502  503 -0.00000000000E+00 -0.00000000000E+00 -0.21823317583E+01  0.21823317583E+01  0.00000000000E+00 0.  1.
          5    1    1    2  501    0  0.17947732131E+02  0.17445481363E+02  0.30422174318E+03  0.30524962725E+03  0.00000000000E+00 0. -1.
         -5    1    1    2    0  503 -0.17947732131E+02 -0.17445481363E+02  0.92204447448E+02  0.95541226901E+02  0.00000000000E+00 0.  1.
<mgrwt>
<rscale>  2 0.25029301E+02</rscale>
<asrwt>0</asrwt>
<pdfrwt beam="1">  1       21 0.61324330E-01 0.25029301E+02</pdfrwt>
<pdfrwt beam="2">  1       21 0.33574367E-03 0.25029301E+02</pdfrwt>
<totfact> 0.39286356E+07</totfact>
</mgrwt>
</event>
<event>
 4    1  0.7424968E+004  0.3371699E+02  0.7546771E-02  0.1560298E+00
         21   -1    0    0  501  502  0.00000000000E+00  0.00000000000E+00  0.43671857251E+02  0.43671857251E+02  0.00000000000E+00 0.  1.
         21   -1    0    0  502  503 -0.00000000000E+00 -0.00000000000E+00 -0.30422662323E+02  0.30422662323E+02  0.00000000000E+00 0.  1.
          3    1    1    2  501    0 -0.48390726287E+00  0.33713517046E+02 -0.74506783516E+01  0.34530392493E+02  0.00000000000E+00 0.  1.
         -3    1    1    2    0  503  0.48390726287E+00 -0.33713517046E+02  0.20699873280E+02  0.39564127081E+02  0.00000000000E+00 0. -1.
<mgrwt>
<rscale>  2 0.33716990E+02</rscale>
<asrwt>0</asrwt>
<pdfrwt beam="1">  1       21 0.67187473E-02 0.33716990E+02</pdfrwt>
<pdfrwt beam="2">  1       21 0.46804096E-02 0.33716990E+02</pdfrwt>
<totfact> 0.38607236E+07</totfact>
</mgrwt>
</event>
<event>
 4    1  0.7424968E+004  0.2817056E+02  0.7546771E-02  0.1619238E+00
         21   -1    0    0  503  502  0.00000000000E+00  0.00000000000E+00  0.43905604675E+02  0.43905604675E+02  0.00000000000E+00 0. -1.
         21   -1    0    0  501  503 -0.00000000000E+00 -0.00000000000E+00 -0.18312153646E+02  0.18312153646E+02  0.00000000000E+00 0. -1.
          5    1    1    2  501    0 -0.67874498412E+01 -0.27340643046E+02  0.16339245484E+02  0.32566104779E+02  0.00000000000E+00 0. -1.
         -5    1    1    2    0  502  0.67874498412E+01  0.27340643046E+02  0.92542055451E+01  0.29651653542E+02  0.00000000000E+00 0.  1.
<mgrwt>
<rscale>  2 0.28170556E+02</rscale>
<asrwt>0</asrwt>
<pdfrwt beam="1">  1       21 0.67547084E-02 0.28170556E+02</pdfrwt>
<pdfrwt beam="2">  1       21 0.28172544E-02 0.28170556E+02</pdfrwt>
<totfact> 0.82268090E+07</totfact>
</mgrwt>
</event>
<event>
 4    1  0.7424968E+004  0.2371038E+02  0.7546771E-02  0.1680247E+00
         21   -1    0    0  503  502  0.00000000000E+00  0.00000000000E+00  0.64935292963E+03  0.64935292963E+03  0.00000000000E+00 0. -1.
         21   -1    0    0  501  503 -0.00000000000E+00 -0.00000000000E+00 -0.99409854788E+00  0.99409854788E+00  0.00000000000E+00 0. -1.
          4    1    1    2  501    0  0.20289298111E+02  0.12268918227E+02  0.44101731691E+03  0.44165422650E+03  0.00000000000E+00 0.  1.
         -4    1    1    2    0  502 -0.20289298111E+02 -0.12268918227E+02  0.20734151418E+03  0.20869280168E+03  0.00000000000E+00 0. -1.
<mgrwt>
<rscale>  2 0.23710377E+02</rscale>
<asrwt>0</asrwt>
<pdfrwt beam="1">  1       21 0.99900112E-01 0.23710377E+02</pdfrwt>
<pdfrwt beam="2">  1       21 0.15293876E-03 0.23710377E+02</pdfrwt>
<totfact> 0.43682596E+07</totfact>
</mgrwt>
</event>
<event>
 4    1  0.7424968E+004  0.2103735E+02  0.7546771E-02  0.1725453E+00
         21   -1    0    0  503  502  0.00000000000E+00  0.00000000000E+00  0.64867293508E+03  0.64867293508E+03  0.00000000000E+00 0.  1.
         21   -1    0    0  501  503 -0.00000000000E+00 -0.00000000000E+00 -0.81551148369E+00  0.81551148369E+00  0.00000000000E+00 0.  1.
          4    1    1    2  501    0  0.82981211903E+01 -0.19331612593E+02  0.45519287698E+03  0.45567875231E+03  0.00000000000E+00 0. -1.
         -4    1    1    2    0  502 -0.82981211903E+01  0.19331612593E+02  0.19266454662E+03  0.19380969425E+03  0.00000000000E+00 0.  1.
<mgrwt>
<rscale>  2 0.21037349E+02</rscale>
<asrwt>0</asrwt>
<pdfrwt beam="1">  1       21 0.99795424E-01 0.21037349E+02</pdfrwt>
<pdfrwt beam="2">  1       21 0.12546382E-03 0.21037349E+02</pdfrwt>
<totfact> 0.56606166E+07</totfact>
</mgrwt>
</event>
<event>
 4    1  0.7424968E+004  0.2194529E+02  0.7546771E-02  0.1709200E+00
         21   -1    0    0  501  502  0.00000000000E+00  0.00000000000E+00  0.14259135716E+03  0.14259135716E+03  0.00000000000E+00 0.  1.
         21   -1    0    0  502  503 -0.00000000000E+00 -0.00000000000E+00 -0.41110347891E+01  0.41110347891E+01  0.00000000000E+00 0.  1.
          2    1    1    2  501    0 -0.21534910478E+02 -0.42241273148E+01  0.38254849771E+02  0.44102484645E+02  0.00000000000E+00 0.  1.
         -2    1    1    2    0  503  0.21534910478E+02  0.42241273148E+01  0.10022547260E+03  0.10259990730E+03  0.00000000000E+00 0. -1.
<mgrwt>
<rscale>  2 0.21945287E+02</rscale>
<asrwt>0</asrwt>
<pdfrwt beam="1">  1       21 0.21937128E-01 0.21945287E+02</pdfrwt>
<pdfrwt beam="2">  1       21 0.63246700E-03 0.21945287E+02</pdfrwt>
<totfact> 0.10244767E+08</totfact>
</mgrwt>
</event>
<event>
 4    1  0.7424968E+004  0.2918985E+02  0.7546771E-02  0.1607220E+00
         21   -1    0    0  501  502  0.00000000000E+00  0.00000000000E+00  0.10009555314E+03  0.10009555314E+03  0.00000000000E+00 0. -1.
         21   -1    0    0  502  503 -0.00000000000E+00 -0.00000000000E+00 -0.89952251557E+01  0.89952251557E+01  0.00000000000E+00 0. -1.
          2    1    1    2  501    0  0.23746120959E+02 -0.16975544729E+02  0.58188036185E+02  0.65099116234E+02  0.00000000000E+00 0.  1.
         -2    1    1    2    0  503 -0.23746120959E+02  0.16975544729E+02  0.32912291800E+02  0.43991662062E+02  0.00000000000E+00 0. -1.
<mgrwt>
<rscale>  2 0.29189851E+02</rscale>
<asrwt>0</asrwt>
<pdfrwt beam="1">  1       21 0.15399315E-01 0.29189851E+02</pdfrwt>
<pdfrwt beam="2">  1       21 0.13838809E-02 0.29189851E+02</pdfrwt>
<totfact> 0.62768914E+07</totfact>
</mgrwt>
</event>
<event>
 4    1  0.7424968E+004  0.2265665E+02  0.7546771E-02  0.1697137E+00
         21   -1    0    0  503  502  0.00000000000E+00  0.00000000000E+00  0.52674142027E+01  0.52674142027E+01  0.00000000000E+00 0.  1.
         21   -1    0    0  501  503 -0.00000000000E+00 -0.00000000000E+00 -0.18193505504E+03  0.18193505504E+03  0.00000000000E+00 0.  1.
          2    1    1    2  501    0 -0.20038785061E+02 -0.10572170750E+02 -0.15211703554E+03  0.15379504609E+03  0.00000000000E+00 0.  1.
         -2    1    1    2    0  502  0.20038785061E+02  0.10572170750E+02 -0.24550605297E+02  0.33407423150E+02  0.00000000000E+00 0. -1.
<mgrwt>
<rscale>  2 0.22656648E+02</rscale>
<asrwt>0</asrwt>
<pdfrwt beam="1">  1       21 0.81037157E-03 0.22656648E+02</pdfrwt>
<pdfrwt beam="2">  1       21 0.27990003E-01 0.22656648E+02</pdfrwt>
<totfact> 0.46323613E+07</totfact>
</mgrwt>
</event>
<event>
 4    1  0.7424968E+004  0.4306706E+02  0.7546771E-02  0.1486782E+00
         21   -1    0    0  501  502  0.00000000000E+00  0.00000000000E+00  0.28422521653E+03  0.28422521653E+03  0.00000000000E+00 0.  1.
         21   -1    0    0  502  503 -0.00000000000E+00 -0.00000000000E+00 -0.66119689878E+01  0.66119689878E+01  0.00000000000E+00 0.  1.
          4    1    1    2  501    0 -0.39032820109E+02  0.18199183102E+02  0.12219710892E+03  0.12956428806E+03  0.00000000000E+00 0. -1.
         -4    1    1    2    0  503  0.39032820109E+02 -0.18199183102E+02  0.15541613861E+03  0.16127289745E+03  0.00000000000E+00 0.  1.
<mgrwt>
<rscale>  2 0.43067056E+02</rscale>
<asrwt>0</asrwt>
<pdfrwt beam="1">  1       21 0.43726947E-01 0.43067056E+02</pdfrwt>
<pdfrwt beam="2">  1       21 0.10172262E-02 0.43067056E+02</pdfrwt>
<totfact> 0.16024607E+07</totfact>
</mgrwt>
</event>
<event>
 4    1  0.7424968E+004  0.2291006E+02  0.7546771E-02  0.1692972E+00
         21   -1    0    0  503  502  0.00000000000E+00  0.00000000000E+00  0.46580207697E+02  0.46580207697E+02  0.00000000000E+00 0.  1.
         21   -1    0    0  501  503 -0.00000000000E+00 -0.00000000000E+00 -0.11907753041E+02  0.11907753041E+02  0.00000000000E+00 0.  1.
          1    1    1    2  501    0  0.18912848636E+02  0.12929624328E+02  0.10558415527E+02  0.25226001808E+02  0.00000000000E+00 0.  1.
         -1    1    1    2    0  502 -0.18912848636E+02 -0.12929624328E+02  0.24114039129E+02  0.33261958930E+02  0.00000000000E+00 0. -1.
<mgrwt>
<rscale>  2 0.22910064E+02</rscale>
<asrwt>0</asrwt>
<pdfrwt beam="1">  1       21 0.71661857E-02 0.22910064E+02</pdfrwt>
<pdfrwt beam="2">  1       21 0.18319620E-02 0.22910064E+02</pdfrwt>
<totfact> 0.13746378E+08</totfact>
</mgrwt>
</event>
<event>
 4    1  0.7424968E+004  0.2071092E+02  0.7546771E-02  0.1731549E+00
         21   -1    0    0  501  502  0.00000000000E+00  0.00000000000E+00  0.41490157606E+02  0.41490157606E+02  0.00000000000E+00 0.  1.
         21   -1    0    0  502  503 -0.00000000000E+00 -0.00000000000E+00 -0.11478593737E+02  0.11478593737E+02  0.00000000000E+00 0.  1.
          3    1    1    2  501    0 -0.50183294741E+01  0.20093743333E+02  0.23352837717E+02  0.31213733857E+02  0.00000000000E+00 0.  1.
         -3    1    1    2    0  503  0.50183294741E+01 -0.20093743333E+02  0.66587261522E+01  0.21755017486E+02  0.00000000000E+00 0. -1.
<mgrwt>
<rscale>  2 0.20710919E+02</rscale>
<asrwt>0</asrwt>
<pdfrwt beam="1">  1       21 0.63831011E-02 0.20710919E+02</pdfrwt>
<pdfrwt beam="2">  1       21 0.17659375E-02 0.20710919E+02</pdfrwt>
<totfact> 0.16987258E+08</totfact>
</mgrwt>
</event>
<event>
 4    1  0.7424968E+004  0.3559845E+02  0.7546771E-02  0.1543349E+00
         21   -1    0    0  503  502  0.00000000000E+00  0.00000000000E+00  0.20914894939E+02  0.20914894939E+02  0.00000000000E+00 0. -1.
         21   -1    0    0  501  503 -0.00000000000E+00 -0.00000000000E+00 -0.61381779822E+02  0.61381779822E+02  0.00000000000E+00 0. -1.
          4    1    1    2  501    0  0.20033762231E+02 -0.29426149821E+02 -0.24904541888E+02  0.43445208355E+02  0.00000000000E+00 0. -1.
         -4    1    1    2    0  502 -0.20033762231E+02  0.29426149821E+02 -0.15562342995E+02  0.38851466406E+02  0.00000000000E+00 0.  1.
<mgrwt>
<rscale>  2 0.35598454E+02</rscale>
<asrwt>0</asrwt>
<pdfrwt beam="1">  1       21 0.32176762E-02 0.35598454E+02</pdfrwt>
<pdfrwt beam="2">  1       21 0.94433506E-02 0.35598454E+02</pdfrwt>
<totfact> 0.40405762E+07</totfact>
</mgrwt>
</event>
<event>
 4    1  0.7424968E+004  0.2299207E+02  0.7546771E-02  0.1691639E+00
         21   -1    0    0  503  502  0.00000000000E+00  0.00000000000E+00  0.38288897381E+02  0.38288897381E+02  0.00000000000E+00 0. -1.
         21   -1    0    0  501  503 -0.00000000000E+00 -0.00000000000E+00 -0.15155892054E+02  0.15155892054E+02  0.00000000000E+00 0. -1.
          2    1    1    2  501    0 -0.20914168964E+02 -0.95515886027E+01  0.35928891255E+01  0.23271101404E+02  0.00000000000E+00 0. -1.
         -2    1    1    2    0  502  0.20914168964E+02  0.95515886027E+01  0.19540116201E+02  0.30173688032E+02  0.00000000000E+00 0.  1.
<mgrwt>
<rscale>  2 0.22992071E+02</rscale>
<asrwt>0</asrwt>
<pdfrwt beam="1">  1       21 0.58905996E-02 0.22992071E+02</pdfrwt>
<pdfrwt beam="2">  1       21 0.23316757E-02 0.22992071E+02</pdfrwt>
<totfact> 0.13033483E+08</totfact>
</mgrwt>
</event>
<event>
 4    1  0.7424968E+004  0.2049569E+02  0.7546771E-02  0.1735647E+00
         21   -1    0    0  501  502  0.00000000000E+00  0.00000000000E+00  0.49404263890E+01  0.49404263890E+01  0.00000000000E+00 0.  1.
         21   -1    0    0  502  503 -0.00000000000E+00 -0.00000000000E+00 -0.86876447916E+02  0.86876447916E+02  0.00000000000E+00 0.  1.
          2    1    1    2  501    0 -0.25451227346E+00  0.20494106685E+02 -0.47664977346E+02  0.51884711146E+02  0.00000000000E+00 0.  1.
         -2    1    1    2    0  503  0.25451227346E+00 -0.20494106685E+02 -0.34271044181E+02  0.39932163159E+02  0.00000000000E+00 0. -1.
<mgrwt>
<rscale>  2 0.20495687E+02</rscale>
<asrwt>0</asrwt>
<pdfrwt beam="1">  1       21 0.76006556E-03 0.20495687E+02</pdfrwt>
<pdfrwt beam="2">  1       21 0.13365608E-01 0.20495687E+02</pdfrwt>
<totfact> 0.17891357E+08</totfact>
</mgrwt>
</event>
<event>
 4    1  0.7424968E+004  0.2657903E+02  0.7546771E-02  0.1639305E+00
         21   -1    0    0  503  502  0.00000000000E+00  0.00000000000E+00  0.33156599536E+02  0.33156599536E+02  0.00000000000E+00 0.  1.
         21   -1    0    0  501  503 -0.00000000000E+00 -0.00000000000E+00 -0.21342502533E+02  0.21342502533E+02  0.00000000000E+00 0.  1.
          5    1    1    2  501    0 -0.26516270458E+02 -0.18255138724E+01  0.70290405195E+01  0.27492771969E+02  0.00000000000E+00 0. -1.
         -5    1    1    2    0  502  0.26516270458E+02  0.18255138724E+01  0.47850564841E+01  0.27006330100E+02  0.00000000000E+00 0.  1.
<mgrwt>
<rscale>  2 0.26579035E+02</rscale>
<asrwt>0</asrwt>
<pdfrwt beam="1">  1       21 0.51010153E-02 0.26579035E+02</pdfrwt>
<pdfrwt beam="2">  1       21 0.32834619E-02 0.26579035E+02</pdfrwt>
<totfact> 0.10033030E+08</totfact>
</mgrwt>
</event>
<event>
 4    1  0.7424968E+004  0.2327804E+02  0.7546771E-02  0.1687042E+00
         21   -1    0    0  503  502  0.00000000000E+00  0.00000000000E+00  0.12454011353E+03  0.12454011353E+03  0.00000000000E+00 0.  1.
         21   -1    0    0  501  503 -0.00000000000E+00 -0.00000000000E+00 -0.49754679124E+01  0.49754679124E+01  0.00000000000E+00 0.  1.
          3    1    1    2  501    0  0.13820079028E+02 -0.18731587422E+02  0.82725306514E+02  0.85938020047E+02  0.00000000000E+00 0. -1.
         -3    1    1    2    0  502 -0.13820079028E+02  0.18731587422E+02  0.36839339107E+02  0.43577561399E+02  0.00000000000E+00 0.  1.
<mgrwt>
<rscale>  2 0.23278036E+02</rscale>
<asrwt>0</asrwt>
<pdfrwt beam="1">  1       21 0.19160015E-01 0.23278036E+02</pdfrwt>
<pdfrwt beam="2">  1       21 0.76545670E-03 0.23278036E+02</pdfrwt>
<totfact> 0.99344802E+07</totfact>
</mgrwt>
</event>
<event>
 4    1  0.7424968E+004  0.2296189E+02  0.7546771E-02  0.1692129E+00
         21   -1    0    0  501  502  0.00000000000E+00  0.00000000000E+00  0.19455951806E+03  0.19455951806E+03  0.00000000000E+00 0. -1.
         21   -1    0    0  502  503 -0.00000000000E+00 -0.00000000000E+00 -0.27256901149E+01  0.27256901149E+01  0.00000000000E+00 0. -1.
          1    1    1    2  501    0  0.12455494448E+02 -0.19290133718E+02  0.88423393351E+02  0.91356144252E+02  0.00000000000E+00 0.  1.
         -1    1    1    2    0  503 -0.12455494448E+02  0.19290133718E+02  0.10341043459E+03  0.10592906392E+03  0.00000000000E+00 0. -1.
<mgrwt>
<rscale>  2 0.22961895E+02</rscale>
<asrwt>0</asrwt>
<pdfrwt beam="1">  1       21 0.29932223E-01 0.22961895E+02</pdfrwt>
<pdfrwt beam="2">  1       21 0.41933709E-03 0.22961895E+02</pdfrwt>
<totfact> 0.10916184E+08</totfact>
</mgrwt>
</event>
<event>
 4    1  0.7424968E+004  0.3224914E+02  0.7546771E-02  0.1574480E+00
         21   -1    0    0  503  502  0.00000000000E+00  0.00000000000E+00  0.13744081811E+02  0.13744081811E+02  0.00000000000E+00 0.  1.
         21   -1    0    0  501  503 -0.00000000000E+00 -0.00000000000E+00 -0.77714343926E+02  0.77714343926E+02  0.00000000000E+00 0.  1.
          4    1    1    2  501    0  0.20324298894E+02 -0.25038573721E+02 -0.39402964409E+02  0.50917589336E+02  0.00000000000E+00 0.  1.
         -4    1    1    2    0  502 -0.20324298894E+02  0.25038573721E+02 -0.24567297706E+02  0.40540836401E+02  0.00000000000E+00 0. -1.
<mgrwt>
<rscale>  2 0.32249144E+02</rscale>
<asrwt>0</asrwt>
<pdfrwt beam="1">  1       21 0.21144741E-02 0.32249144E+02</pdfrwt>
<pdfrwt beam="2">  1       21 0.11956053E-01 0.32249144E+02</pdfrwt>
<totfact> 0.51425144E+07</totfact>
</mgrwt>
</event>
<event>
 4    1  0.7424968E+004  0.2462582E+02  0.7546771E-02  0.1666435E+00
         21   -1    0    0  503  502  0.00000000000E+00  0.00000000000E+00  0.59533560373E+01  0.59533560373E+01  0.00000000000E+00 0. -1.
         21   -1    0    0  501  503 -0.00000000000E+00 -0.00000000000E+00 -0.10460216111E+03  0.10460216111E+03  0.00000000000E+00 0. -1.
          3    1    1    2  501    0  0.12049722937E+01  0.24596325289E+02 -0.58268352383E+02  0.63258454497E+02  0.00000000000E+00 0. -1.
         -3    1    1    2    0  502 -0.12049722937E+01 -0.24596325289E+02 -0.40380452692E+02  0.47297062653E+02  0.00000000000E+00 0.  1.
<mgrwt>
<rscale>  2 0.24625823E+02</rscale>
<asrwt>0</asrwt>
<pdfrwt beam="1">  1       21 0.91590100E-03 0.24625823E+02</pdfrwt>
<pdfrwt beam="2">  1       21 0.16092639E-01 0.24625823E+02</pdfrwt>
<totfact> 0.10425955E+08</totfact>
</mgrwt>
</event>
<event>
 4    1  0.7424968E+004  0.3030993E+02  0.7546771E-02  0.1594688E+00
         21   -1    0    0  501  502  0.00000000000E+00  0.00000000000E+00  0.14377704463E+03  0.14377704463E+03  0.00000000000E+00 0. -1.
         21   -1    0    0  502  503 -0.00000000000E+00 -0.00000000000E+00 -0.69899170502E+01  0.69899170502E+01  0.00000000000E+00 0. -1.
          4    1    1    2  501    0  0.26218429651E+02  0.15208083070E+02  0.46303590497E+02  0.55341795571E+02  0.00000000000E+00 0. -1.
         -4    1    1    2    0  503 -0.26218429651E+02 -0.15208083070E+02  0.90483537080E+02  0.95425166107E+02  0.00000000000E+00 0.  1.
<mgrwt>
<rscale>  2 0.30309930E+02</rscale>
<asrwt>0</asrwt>
<pdfrwt beam="1">  1       21 0.22119543E-01 0.30309930E+02</pdfrwt>
<pdfrwt beam="2">  1       21 0.10753720E-02 0.30309930E+02</pdfrwt>
<totfact> 0.49298318E+07</totfact>
</mgrwt>
</event>
<event>
 4    1  0.7424968E+004  0.2236053E+02  0.7546771E-02  0.1702090E+00
         21   -1    0    0  503  502  0.00000000000E+00  0.00000000000E+00  0.97194434788E+02  0.97194434788E+02  0.00000000000E+00 0. -1.
         21   -1    0    0  501  503 -0.00000000000E+00 -0.00000000000E+00 -0.51531706352E+01  0.51531706352E+01  0.00000000000E+00 0. -1.
          5    1    1    2  501    0  0.21937544364E+02  0.43286580837E+01  0.48148978739E+02  0.53087826167E+02  0.00000000000E+00 0.  1.
         -5    1    1    2    0  502 -0.21937544364E+02 -0.43286580837E+01  0.43892285414E+02  0.49259779256E+02  0.00000000000E+00 0. -1.
<mgrwt>
<rscale>  2 0.22360526E+02</rscale>
<asrwt>0</asrwt>
<pdfrwt beam="1">  1       21 0.14952989E-01 0.22360526E+02</pdfrwt>
<pdfrwt beam="2">  1       21 0.79279555E-03 0.22360526E+02</pdfrwt>
<totfact> 0.14272513E+08</totfact>
</mgrwt>
</event>
<event>
 4    1  0.7424968E+004  0.2068405E+02  0.7546771E-02  0.1732057E+00
         21   -1    0    0  501  502  0.00000000000E+00  0.00000000000E+00  0.13000336218E+02  0.13000336218E+02  0.00000000000E+00 0.  1.
         21   -1    0    0  502  503 -0.00000000000E+00 -0.00000000000E+00 -0.51667202866E+02  0.51667202866E+02  0.00000000000E+00 0.  1.
          1    1    1    2  501    0  0.13783238351E+02  0.15422460965E+02  0.14898159086E+00  0.20684587431E+02  0.00000000000E+00 0.  1.
         -1    1    1    2    0  503 -0.13783238351E+02 -0.15422460965E+02 -0.38815848238E+02  0.43982951653E+02  0.00000000000E+00 0. -1.
<mgrwt>
<rscale>  2 0.20684051E+02</rscale>
<asrwt>0</asrwt>
<pdfrwt beam="1">  1       21 0.20000518E-02 0.20684051E+02</pdfrwt>
<pdfrwt beam="2">  1       21 0.79488003E-02 0.20684051E+02</pdfrwt>
<totfact> 0.98566766E+07</totfact>
</mgrwt>
</event>
<event>
 4    1  0.7424968E+004  0.2226615E+02  0.7546771E-02  0.1703689E+00
         21   -1    0    0  503  502  0.00000000000E+00  0.00000000000E+00  0.54100767199E+02  0.54100767199E+02  0.00000000000E+00 0. -1.
         21   -1    0    0  501  503 -0.00000000000E+00 -0.00000000000E+00 -0.10500594965E+02  0.10500594965E+02  0.00000000000E+00 0. -1.
          3    1    1    2  501    0 -0.38973678511E+01 -0.21922404772E+02  0.10276198839E+02  0.24523082386E+02  0.00000000000E+00 0. -1.
         -3    1    1    2    0  502  0.38973678511E+01  0.21922404772E+02  0.33323973395E+02  0.40078279778E+02  0.00000000000E+00 0.  1.
<mgrwt>
<rscale>  2 0.22266147E+02</rscale>
<asrwt>0</asrwt>
<pdfrwt beam="1">  1       21 0.83231947E-02 0.22266147E+02</pdfrwt>
<pdfrwt beam="2">  1       21 0.16154762E-02 0.22266147E+02</pdfrwt>
<totfact> 0.12943343E+08</totfact>
</mgrwt>
</event>
<event>
 4    1  0.7424968E+004  0.3275077E+02  0.7546771E-02  0.1569532E+00
         21   -1    0    0  503  502  0.00000000000E+00  0.00000000000E+00  0.58086388498E+02  0.58086388498E+02  0.00000000000E+00 0.  1.
         21   -1    0    0  501  503 -0.00000000000E+00 -0.00000000000E+00 -0.22081478955E+02  0.22081478955E+02  0.00000000000E+00 0.  1.
          2    1    1    2  501    0 -0.18150165191E+02 -0.27261410189E+02  0.34222415271E+02  0.47368625575E+02  0.00000000000E+00 0. -1.
         -2    1    1    2    0  502  0.18150165191E+02  0.27261410189E+02  0.17824942724E+01  0.32799241878E+02  0.00000000000E+00 0.  1.
<mgrwt>
<rscale>  2 0.32750771E+02</rscale>
<asrwt>0</asrwt>
<pdfrwt beam="1">  1       21 0.89363674E-02 0.32750771E+02</pdfrwt>
<pdfrwt beam="2">  1       21 0.33971506E-02 0.32750771E+02</pdfrwt>
<totfact> 0.39970056E+07</totfact>
</mgrwt>
</event>
<event>
 4    1  0.7424968E+004  0.2118690E+02  0.7546771E-02  0.1722706E+00
         21   -1    0    0  501  502  0.00000000000E+00  0.00000000000E+00  0.71020675328E+03  0.71020675328E+03  0.00000000000E+00 0. -1.
         21   -1    0    0  502  503 -0.00000000000E+00 -0.00000000000E+00 -0.63232685565E+00  0.63232685565E+00  0.00000000000E+00 0. -1.
          4    1    1    2  501    0  0.80445787891E+01 -0.19600237455E+02  0.34731960782E+03  0.34796522029E+03  0.00000000000E+00 0.  1.
         -4    1    1    2    0  503 -0.80445787891E+01  0.19600237455E+02  0.36225481860E+03  0.36287385984E+03  0.00000000000E+00 0. -1.
<mgrwt>
<rscale>  2 0.21186896E+02</rscale>
<asrwt>0</asrwt>
<pdfrwt beam="1">  1       21 0.10926194E+00 0.21186896E+02</pdfrwt>
<pdfrwt beam="2">  1       21 0.97281622E-04 0.21186896E+02</pdfrwt>
<totfact> 0.66707166E+07</totfact>
</mgrwt>
</event>
<event>
 4    1  0.7424968E+004  0.2138384E+02  0.7546771E-02  0.1719131E+00
         21   -1    0    0  503  502  0.00000000000E+00  0.00000000000E+00  0.21166715901E+03  0.21166715901E+03  0.00000000000E+00 0.  1.
         21   -1    0    0  501  503 -0.00000000000E+00 -0.00000000000E+00 -0.22648538170E+01  0.22648538170E+01  0.00000000000E+00 0.  1.
          2    1    1    2  501    0 -0.14824269252E+02  0.15411343530E+02  0.81720766357E+02  0.84472197333E+02  0.00000000000E+00 0. -1.
         -2    1    1    2    0  502  0.14824269252E+02 -0.15411343530E+02  0.12768153884E+03  0.12945981549E+03  0.00000000000E+00 0.  1.
<mgrwt>
<rscale>  2 0.21383837E+02</rscale>
<asrwt>0</asrwt>
<pdfrwt beam="1">  1       21 0.32564163E-01 0.21383837E+02</pdfrwt>
<pdfrwt beam="2">  1       21 0.34843922E-03 0.21383837E+02</pdfrwt>
<totfact> 0.12035681E+08</totfact>
</mgrwt>
</event>
<event>
 4    1  0.7424968E+004  0.2066902E+02  0.7546771E-02  0.1732342E+00
         21   -1    0    0  503  502  0.00000000000E+00  0.00000000000E+00  0.13183937503E+01  0.13183937503E+01  0.00000000000E+00 0.  1.
         21   -1    0    0  501  503 -0.00000000000E+00 -0.00000000000E+00 -0.38927597761E+03  0.38927597761E+03  0.00000000000E+00 0.  1.
          4    1    1    2  501    0  0.17671561047E+02 -0.10720279463E+02 -0.11402841996E+03  0.11588653511E+03  0.00000000000E+00 0.  1.
         -4    1    1    2    0  502 -0.17671561047E+02  0.10720279463E+02 -0.27392916389E+03  0.27470783624E+03  0.00000000000E+00 0. -1.
<mgrwt>
<rscale>  2 0.20669022E+02</rscale>
<asrwt>0</asrwt>
<pdfrwt beam="1">  1       21 0.20282976E-03 0.20669022E+02</pdfrwt>
<pdfrwt beam="2">  1       21 0.59888627E-01 0.20669022E+02</pdfrwt>
<totfact> 0.81841759E+07</totfact>
</mgrwt>
</event>
<event>
 4    1  0.7424968E+004  0.2181610E+02  0.7546771E-02  0.1711452E+00
         21   -1    0    0  501  502  0.00000000000E+00  0.00000000000E+00  0.25069897561E+02  0.25069897561E+02  0.00000000000E+00 0. -1.
         21   -1    0    0  502  503 -0.00000000000E+00 -0.00000000000E+00 -0.20019450194E+02  0.20019450194E+02  0.00000000000E+00 0. -1.
          3    1    1    2  501    0 -0.85793603688E+01  0.20058333120E+02  0.76509470676E+01  0.23118804963E+02  0.00000000000E+00 0.  1.
         -3    1    1    2    0  503  0.85793603688E+01 -0.20058333120E+02 -0.26004997009E+01  0.21970542792E+02  0.00000000000E+00 0. -1.
<mgrwt>
<rscale>  2 0.21816098E+02</rscale>
<asrwt>0</asrwt>
<pdfrwt beam="1">  1       21 0.38569073E-02 0.21816098E+02</pdfrwt>
<pdfrwt beam="2">  1       21 0.30799154E-02 0.21816098E+02</pdfrwt>
<totfact> 0.16321010E+08</totfact>
</mgrwt>
</event>
<event>
 4    1  0.7424968E+004  0.2883681E+02  0.7546771E-02  0.1611314E+00
         21   -1    0    0  503  502  0.00000000000E+00  0.00000000000E+00  0.27478416046E+02  0.27478416046E+02  0.00000000000E+00 0.  1.
         21   -1    0    0  501  503 -0.00000000000E+00 -0.00000000000E+00 -0.31547375797E+02  0.31547375797E+02  0.00000000000E+00 0.  1.
          3    1    1    2  501    0  0.67278509030E+01  0.28040996833E+02  0.39219481759E+01  0.29102287859E+02  0.00000000000E+00 0.  1.
         -3    1    1    2    0  502 -0.67278509030E+01 -0.28040996833E+02 -0.79909079262E+01  0.29923503983E+02  0.00000000000E+00 0. -1.
<mgrwt>
<rscale>  2 0.28836808E+02</rscale>
<asrwt>0</asrwt>
<pdfrwt beam="1">  1       21 0.42274487E-02 0.28836808E+02</pdfrwt>
<pdfrwt beam="2">  1       21 0.48534424E-02 0.28836808E+02</pdfrwt>
<totfact> 0.74388224E+07</totfact>
</mgrwt>
</event>
<event>
 4    1  0.7424968E+004  0.2615227E+02  0.7546771E-02  0.1644982E+00
         21   -1    0    0  501  502  0.00000000000E+00  0.00000000000E+00  0.12312711821E+02  0.12312711821E+02  0.00000000000E+00 0.  1.
         21   -1    0    0  502  503 -0.00000000000E+00 -0.00000000000E+00 -0.11131460674E+03  0.11131460674E+03  0.00000000000E+00 0.  1.
          4    1    1    2  501    0 -0.26149553789E+02 -0.37684370550E+00 -0.57490215568E+01  0.26776714201E+02  0.00000000000E+00 0.  1.
         -4    1    1    2    0  503  0.26149553789E+02  0.37684370550E+00 -0.93252873364E+02  0.96850604362E+02  0.00000000000E+00 0. -1.
<mgrwt>
<rscale>  2 0.26152269E+02</rscale>
<asrwt>0</asrwt>
<pdfrwt beam="1">  1       21 0.18942634E-02 0.26152269E+02</pdfrwt>
<pdfrwt beam="2">  1       21 0.17125323E-01 0.26152269E+02</pdfrwt>
<totfact> 0.31492352E+07</totfact>
</mgrwt>
</event>
<event>
 4    1  0.7424968E+004  0.5033844E+02  0.7546771E-02  0.1443525E+00
         21   -1    0    0  501  502  0.00000000000E+00  0.00000000000E+00  0.64599832458E+03  0.64599832458E+03  0.00000000000E+00 0.  1.
         21   -1    0    0  502  503 -0.00000000000E+00 -0.00000000000E+00 -0.50416420113E+01  0.50416420113E+01  0.00000000000E+00 0.  1.
          1    1    1    2  501    0 -0.50327930448E+02 -0.10286974914E+01  0.47384294210E+03  0.47650927859E+03  0.00000000000E+00 0. -1.
         -1    1    1    2    0  503  0.50327930448E+02  0.10286974914E+01  0.16711374047E+03  0.17453068800E+03  0.00000000000E+00 0.  1.
<mgrwt>
<rscale>  2 0.50338443E+02</rscale>
<asrwt>0</asrwt>
<pdfrwt beam="1">  1       21 0.99384292E-01 0.50338443E+02</pdfrwt>
<pdfrwt beam="2">  1       21 0.77563774E-03 0.50338443E+02</pdfrwt>
<totfact> 0.44217714E+06</totfact>
</mgrwt>
</event>
<event>
 4    1  0.7424968E+004  0.3245924E+02  0.7546771E-02  0.1572394E+00
         21   -1    0    0  503  502  0.00000000000E+00  0.00000000000E+00  0.35509205186E+03  0.35509205186E+03  0.00000000000E+00 0.  1.
         21   -1    0    0  501  503 -0.00000000000E+00 -0.00000000000E+00 -0.29921363094E+01  0.29921363094E+01  0.00000000000E+00 0.  1.
          3    1    1    2  501    0  0.32204332609E+02  0.40599567242E+01  0.19241955452E+03  0.19513812351E+03  0.00000000000E+00 0. -1.
         -3    1    1    2    0  502 -0.32204332609E+02 -0.40599567242E+01  0.15968036103E+03  0.16294606466E+03  0.00000000000E+00 0.  1.
<mgrwt>
<rscale>  2 0.32459240E+02</rscale>
<asrwt>0</asrwt>
<pdfrwt beam="1">  1       21 0.54629513E-01 0.32459240E+02</pdfrwt>
<pdfrwt beam="2">  1       21 0.46032894E-03 0.32459240E+02</pdfrwt>
<totfact> 0.32695215E+07</totfact>
</mgrwt>
</event>
<event>
 4    1  0.7424968E+004  0.2625938E+02  0.7546771E-02  0.1643545E+00
         21   -1    0    0  501  502  0.00000000000E+00  0.00000000000E+00  0.24012714257E+01  0.24012714257E+01  0.00000000000E+00 0.  1.
         21   -1    0    0  502  503 -0.00000000000E+00 -0.00000000000E+00 -0.31568818093E+03  0.31568818093E+03  0.00000000000E+00 0.  1.
          3    1    1    2  501    0 -0.26130480278E+02 -0.25986581294E+01 -0.10883459542E+03  0.11195768926E+03  0.00000000000E+00 0. -1.
         -3    1    1    2    0  503  0.26130480278E+02  0.25986581294E+01 -0.20445231408E+03  0.20613176310E+03  0.00000000000E+00 0.  1.
<mgrwt>
<rscale>  2 0.26259380E+02</rscale>
<asrwt>0</asrwt>
<pdfrwt beam="1">  1       21 0.36942651E-03 0.26259380E+02</pdfrwt>
<pdfrwt beam="2">  1       21 0.48567394E-01 0.26259380E+02</pdfrwt>
<totfact> 0.54728174E+07</totfact>
</mgrwt>
</event>
<event>
 4    1  0.7424968E+004  0.2134990E+02  0.7546771E-02  0.1719744E+00
         21   -1    0    0  501  502  0.00000000000E+00  0.00000000000E+00  0.71334984797E+03  0.71334984797E+03  0.00000000000E+00 0. -1.
         21   -1    0    0  502  503 -0.00000000000E+00 -0.00000000000E+00 -0.69503160715E+00  0.69503160715E+00  0.00000000000E+00 0. -1.
          4    1    1    2  501    0 -0.19079893763E+02 -0.95799762965E+01  0.25494178469E+03  0.25583418824E+03  0.00000000000E+00 0.  1.
         -4    1    1    2    0  503  0.19079893763E+02  0.95799762965E+01  0.45771303167E+03  0.45821069133E+03  0.00000000000E+00 0. -1.
<mgrwt>
<rscale>  2 0.21349901E+02</rscale>
<asrwt>0</asrwt>
<pdfrwt beam="1">  1       21 0.10974555E+00 0.21349901E+02</pdfrwt>
<pdfrwt beam="2">  1       21 0.10692851E-03 0.21349901E+02</pdfrwt>
<totfact> 0.57857924E+07</totfact>
</mgrwt>
</event>
<event>
 4    1  0.7424968E+004  0.2571650E+02  0.7546771E-02  0.1650919E+00
         21   -1    0    0  501  502  0.00000000000E+00  0.00000000000E+00  0.58291048780E+02  0.58291048780E+02  0.00000000000E+00 0. -1.
         21   -1    0    0  502  503 -0.00000000000E+00 -0.00000000000E+00 -0.11376124793E+02  0.11376124793E+02  0.00000000000E+00 0. -1.
          4    1    1    2  501    0 -0.41925861739E+01 -0.25372441880E+02  0.25266061818E+02  0.36051525149E+02  0.00000000000E+00 0. -1.
         -4    1    1    2    0  503  0.41925861739E+01  0.25372441880E+02  0.21648862168E+02  0.33615648424E+02  0.00000000000E+00 0.  1.
<mgrwt>
<rscale>  2 0.25716504E+02</rscale>
<asrwt>0</asrwt>
<pdfrwt beam="1">  1       21 0.89678535E-02 0.25716504E+02</pdfrwt>
<pdfrwt beam="2">  1       21 0.17501731E-02 0.25716504E+02</pdfrwt>
<totfact> 0.10554924E+08</totfact>
</mgrwt>
</event>
<event>
 4    1  0.7424968E+004  0.6932760E+02  0.7546771E-02  0.1362395E+00
         21   -1    0    0  503  502  0.00000000000E+00  0.00000000000E+00  0.58123923627E+01  0.58123923627E+01  0.00000000000E+00 0.  1.
         21   -1    0    0  501  503 -0.00000000000E+00 -0.00000000000E+00 -0.83455253769E+03  0.83455253769E+03  0.00000000000E+00 0.  1.
          3    1    1    2  501    0  0.11896509038E+02  0.68299258490E+02 -0.37415605708E+03  0.38052473072E+03  0.00000000000E+00 0. -1.
         -3    1    1    2    0  502 -0.11896509038E+02 -0.68299258490E+02 -0.45458408825E+03  0.45984019933E+03  0.00000000000E+00 0.  1.
<mgrwt>
<rscale>  2 0.69327597E+02</rscale>
<asrwt>0</asrwt>
<pdfrwt beam="1">  1       21 0.89421429E-03 0.69327597E+02</pdfrwt>
<pdfrwt beam="2">  1       21 0.12839269E+00 0.69327597E+02</pdfrwt>
<totfact> 0.19840777E+06</totfact>
</mgrwt>
</event>
<event>
 4    1  0.7424968E+004  0.2005774E+02  0.7546771E-02  0.1744182E+00
         21   -1    0    0  503  502  0.00000000000E+00  0.00000000000E+00  0.99066091569E+00  0.99066091569E+00  0.00000000000E+00 0.  1.
         21   -1    0    0  501  503 -0.00000000000E+00 -0.00000000000E+00 -0.40693072108E+03  0.40693072108E+03  0.00000000000E+00 0.  1.
          5    1    1    2  501    0  0.19619724952E+02  0.41688465553E+01 -0.19378543197E+03  0.19482070355E+03  0.00000000000E+00 0.  1.
         -5    1    1    2    0  502 -0.19619724952E+02 -0.41688465553E+01 -0.21215462819E+03  0.21310067844E+03  0.00000000000E+00 0. -1.
<mgrwt>
<rscale>  2 0.20057739E+02</rscale>
<asrwt>0</asrwt>
<pdfrwt beam="1">  1       21 0.15240925E-03 0.20057739E+02</pdfrwt>
<pdfrwt beam="2">  1       21 0.62604777E-01 0.20057739E+02</pdfrwt>
<totfact> 0.11194967E+08</totfact>
</mgrwt>
</event>
<event>
 4    1  0.7424968E+004  0.2738452E+02  0.7546771E-02  0.1628940E+00
         21   -1    0    0  501  502  0.00000000000E+00  0.00000000000E+00  0.27340456449E+00  0.27340456449E+00  0.00000000000E+00 0. -1.
         21   -1    0    0  502  503 -0.00000000000E+00 -0.00000000000E+00 -0.27825032779E+04  0.27825032779E+04  0.00000000000E+00 0. -1.
          4    1    1    2  501    0 -0.31938680509E+01  0.27197629441E+02 -0.15571834562E+04  0.15574242286E+04  0.00000000000E+00 0.  1.
         -4    1    1    2    0  503  0.31938680509E+01 -0.27197629441E+02 -0.12250464172E+04  0.12253524538E+04  0.00000000000E+00 0. -1.
<mgrwt>
<rscale>  2 0.27384518E+02</rscale>
<asrwt>0</asrwt>
<pdfrwt beam="1">  1       21 0.42062911E-04 0.27384518E+02</pdfrwt>
<pdfrwt beam="2">  1       21 0.42807060E+00 0.27384518E+02</pdfrwt>
<totfact> 0.35374070E+06</totfact>
</mgrwt>
</event>
<event>
 4    1  0.7424968E+004  0.2550739E+02  0.7546771E-02  0.1653819E+00
         21   -1    0    0  503  502  0.00000000000E+00  0.00000000000E+00  0.45964952096E+02  0.45964952096E+02  0.00000000000E+00 0. -1.
         21   -1    0    0  501  503 -0.00000000000E+00 -0.00000000000E+00 -0.14346516308E+02  0.14346516308E+02  0.00000000000E+00 0. -1.
          2    1    1    2  501    0  0.22043408629E+02 -0.12834145043E+02  0.12323709789E+02  0.28328447997E+02  0.00000000000E+00 0. -1.
         -2    1    1    2    0  502 -0.22043408629E+02  0.12834145043E+02  0.19294725999E+02  0.31983020407E+02  0.00000000000E+00 0.  1.
<mgrwt>
<rscale>  2 0.25507394E+02</rscale>
<asrwt>0</asrwt>
<pdfrwt beam="1">  1       21 0.70715310E-02 0.25507394E+02</pdfrwt>
<pdfrwt beam="2">  1       21 0.22071564E-02 0.25507394E+02</pdfrwt>
<totfact> 0.10875400E+08</totfact>
</mgrwt>
</event>
<event>
 4    1  0.7424968E+004  0.2044271E+02  0.7546771E-02  0.1736665E+00
         21   -1    0    0  503  502  0.00000000000E+00  0.00000000000E+00  0.11277021280E+04  0.11277021280E+04  0.00000000000E+00 0. -1.
         21   -1    0    0  501  503 -0.00000000000E+00 -0.00000000000E+00 -0.38382170817E+00  0.38382170817E+00  0.00000000000E+00 0. -1.
          2    1    1    2  501    0 -0.28304030400E+01  0.20245819237E+02  0.45889521320E+03  0.45935032500E+03  0.00000000000E+00 0.  1.
         -2    1    1    2    0  502  0.28304030400E+01 -0.20245819237E+02  0.66842309307E+03  0.66873562469E+03  0.00000000000E+00 0. -1.
<mgrwt>
<rscale>  2 0.20442710E+02</rscale>
<asrwt>0</asrwt>
<pdfrwt beam="1">  1       21 0.17348998E+00 0.20442710E+02</pdfrwt>
<pdfrwt beam="2">  1       21 0.59050396E-04 0.20442710E+02</pdfrwt>
<totfact> 0.45866388E+07</totfact>
</mgrwt>
</event>
<event>
 4    1  0.7424968E+004  0.2126367E+02  0.7546771E-02  0.1721307E+00
         21   -1    0    0  503  502  0.00000000000E+00  0.00000000000E+00  0.50865380616E+03  0.50865380616E+03  0.00000000000E+00 0. -1.
         21   -1    0    0  501  503 -0.00000000000E+00 -0.00000000000E+00 -0.89416777989E+00  0.89416777989E+00  0.00000000000E+00 0. -1.
          4    1    1    2  501    0  0.13165649882E+02  0.16697582992E+02  0.23432929708E+03  0.23529208037E+03  0.00000000000E+00 0. -1.
         -4    1    1    2    0  502 -0.13165649882E+02 -0.16697582992E+02  0.27343034129E+03  0.27425589356E+03  0.00000000000E+00 0.  1.
<mgrwt>
<rscale>  2 0.21263669E+02</rscale>
<asrwt>0</asrwt>
<pdfrwt beam="1">  1       21 0.78254201E-01 0.21263669E+02</pdfrwt>
<pdfrwt beam="2">  1       21 0.13756468E-03 0.21263669E+02</pdfrwt>
<totfact> 0.83474017E+07</totfact>
</mgrwt>
</event>
<event>
 4    1  0.7424968E+004  0.2015303E+02  0.7546771E-02  0.1742302E+00
         21   -1    0    0  501  502  0.00000000000E+00  0.00000000000E+00  0.21554733566E+02  0.21554733566E+02  0.00000000000E+00 0. -1.
         21   -1    0    0  502  503 -0.00000000000E+00 -0.00000000000E+00 -0.19430306710E+02  0.19430306710E+02  0.00000000000E+00 0. -1.
          4    1    1    2  501    0 -0.93733843556E+01  0.17840523203E+02 -0.25021401403E+01  0.20307764715E+02  0.00000000000E+00 0. -1.
         -4    1    1    2    0  503  0.93733843556E+01 -0.17840523203E+02  0.46265669968E+01  0.20677275561E+02  0.00000000000E+00 0.  1.
<mgrwt>
<rscale>  2 0.20153030E+02</rscale>
<asrwt>0</asrwt>
<pdfrwt beam="1">  1       21 0.33161129E-02 0.20153030E+02</pdfrwt>
<pdfrwt beam="2">  1       21 0.29892780E-02 0.20153030E+02</pdfrwt>
<totfact> 0.21105310E+08</totfact>
</mgrwt>
</event>
<event>
 4    1  0.7424968E+004  0.2073994E+02  0.7546771E-02  0.1731002E+00
         21   -1    0    0  503  502  0.00000000000E+00  0.00000000000E+00  0.16421776192E+02  0.16421776192E+02  0.00000000000E+00 0. -1.
         21   -1    0    0  501  503 -0.00000000000E+00 -0.00000000000E+00 -0.31550508111E+02  0.31550508111E+02  0.00000000000E+00 0. -1.
          5    1    1    2  501    0 -0.16887133349E+02  0.12040340393E+02  0.23192356052E+01  0.20869209935E+02  0.00000000000E+00 0. -1.
         -5    1    1    2    0  502  0.16887133349E+02 -0.12040340393E+02 -0.17447967524E+02  0.27103074369E+02  0.00000000000E+00 0.  1.
<mgrwt>
<rscale>  2 0.20739939E+02</rscale>
<asrwt>0</asrwt>
<pdfrwt beam="1">  1       21 0.25264271E-02 0.20739939E+02</pdfrwt>
<pdfrwt beam="2">  1       21 0.48539243E-02 0.20739939E+02</pdfrwt>
<totfact> 0.15194554E+08</totfact>
</mgrwt>
</event>
<event>
 4    1  0.7424968E+004  0.3679051E+02  0.7546771E-02  0.1533252E+00
         21   -1    0    0  501  502  0.00000000000E+00  0.00000000000E+00  0.44140729887E+03  0.44140729887E+03  0.00000000000E+00 0.  1.
         21   -1    0    0  502  503 -0.00000000000E+00 -0.00000000000E+00 -0.40228125977E+01  0.40228125977E+01  0.00000000000E+00 0.  1.
          4    1    1    2  501    0 -0.36519149904E+02  0.44601894382E+01  0.11009919006E+03  0.11608347536E+03  0.00000000000E+00 0.  1.
         -4    1    1    2    0  503  0.36519149904E+02 -0.44601894382E+01  0.32728529621E+03  0.32934663611E+03  0.00000000000E+00 0. -1.
<mgrwt>
<rscale>  2 0.36790510E+02</rscale>
<asrwt>0</asrwt>
<pdfrwt beam="1">  1       21 0.67908777E-01 0.36790510E+02</pdfrwt>
<pdfrwt beam="2">  1       21 0.61889459E-03 0.36790510E+02</pdfrwt>
<totfact> 0.13742999E+07</totfact>
</mgrwt>
</event>
<event>
 4    1  0.7424968E+004  0.2742595E+02  0.7546771E-02  0.1628418E+00
         21   -1    0    0  503  502  0.00000000000E+00  0.00000000000E+00  0.91613015854E+03  0.91613015854E+03  0.00000000000E+00 0. -1.
         21   -1    0    0  501  503 -0.00000000000E+00 -0.00000000000E+00 -0.86745258429E+00  0.86745258429E+00  0.00000000000E+00 0. -1.
          3    1    1    2  501    0 -0.25437683742E+02 -0.10252167136E+02  0.35157981482E+03  0.35264791064E+03  0.00000000000E+00 0. -1.
         -3    1    1    2    0  502  0.25437683742E+02  0.10252167136E+02  0.56368289113E+03  0.56434970048E+03  0.00000000000E+00 0.  1.
<mgrwt>
<rscale>  2 0.27425949E+02</rscale>
<asrwt>0</asrwt>
<pdfrwt beam="1">  1       21 0.14094233E+00 0.27425949E+02</pdfrwt>
<pdfrwt beam="2">  1       21 0.13345498E-03 0.27425949E+02</pdfrwt>
<totfact> 0.24962873E+07</totfact>
</mgrwt>
</event>
<event>
 4    1  0.7424968E+004  0.2396144E+02  0.7546771E-02  0.1676383E+00
         21   -1    0    0  501  502  0.00000000000E+00  0.00000000000E+00  0.56590306370E+01  0.56590306370E+01  0.00000000000E+00 0. -1.
         21   -1    0    0  502  503 -0.00000000000E+00 -0.00000000000E+00 -0.10640794971E+03  0.10640794971E+03  0.00000000000E+00 0. -1.
          1    1    1    2  501    0 -0.16707192352E+02 -0.17176157154E+02 -0.62460566981E+02  0.66898976662E+02  0.00000000000E+00 0.  1.
         -1    1    1    2    0  503  0.16707192352E+02  0.17176157154E+02 -0.38288352088E+02  0.45168003681E+02  0.00000000000E+00 0. -1.
<mgrwt>
<rscale>  2 0.23961441E+02</rscale>
<asrwt>0</asrwt>
<pdfrwt beam="1">  1       21 0.87062019E-03 0.23961441E+02</pdfrwt>
<pdfrwt beam="2">  1       21 0.16370452E-01 0.23961441E+02</pdfrwt>
<totfact> 0.10842594E+08</totfact>
</mgrwt>
</event>
<event>
 4    1  0.7424968E+004  0.2369665E+02  0.7546771E-02  0.1680460E+00
         21   -1    0    0  501  502  0.00000000000E+00  0.00000000000E+00  0.10507242366E+03  0.10507242366E+03  0.00000000000E+00 0. -1.
         21   -1    0    0  502  503 -0.00000000000E+00 -0.00000000000E+00 -0.63242652787E+01  0.63242652787E+01  0.00000000000E+00 0. -1.
          2    1    1    2  501    0 -0.20858973583E+02  0.11244304780E+02  0.27448142036E+02  0.36261986572E+02  0.00000000000E+00 0. -1.
         -2    1    1    2    0  503  0.20858973583E+02 -0.11244304780E+02  0.71300016344E+02  0.75134702366E+02  0.00000000000E+00 0.  1.
<mgrwt>
<rscale>  2 0.23696649E+02</rscale>
<asrwt>0</asrwt>
<pdfrwt beam="1">  1       21 0.16164987E-01 0.23696649E+02</pdfrwt>
<pdfrwt beam="2">  1       21 0.97296397E-03 0.23696649E+02</pdfrwt>
<totfact> 0.93496107E+07</totfact>
</mgrwt>
</event>
<event>
 4    1  0.7424968E+004  0.2900650E+02  0.7546771E-02  0.1609337E+00
         21   -1    0    0  503  502  0.00000000000E+00  0.00000000000E+00  0.28253734837E+01  0.28253734837E+01  0.00000000000E+00 0. -1.
         21   -1    0    0  501  503 -0.00000000000E+00 -0.00000000000E+00 -0.33463400203E+03  0.33463400203E+03  0.00000000000E+00 0. -1.
          5    1    1    2  501    0  0.18855941137E+02 -0.22041562953E+02 -0.10991940204E+03  0.11368224117E+03  0.00000000000E+00 0.  1.
         -5    1    1    2    0  502 -0.18855941137E+02  0.22041562953E+02 -0.22188922651E+03  0.22377713434E+03  0.00000000000E+00 0. -1.
<mgrwt>
<rscale>  2 0.29006500E+02</rscale>
<asrwt>0</asrwt>
<pdfrwt beam="1">  1       21 0.43467283E-03 0.29006500E+02</pdfrwt>
<pdfrwt beam="2">  1       21 0.51482156E-01 0.29006500E+02</pdfrwt>
<totfact> 0.39217220E+07</totfact>
</mgrwt>
</event>
<event>
 4    1  0.7424968E+004  0.2356450E+02  0.7546771E-02  0.1682520E+00
         21   -1    0    0  501  502  0.00000000000E+00  0.00000000000E+00  0.77337168280E+02  0.77337168280E+02  0.00000000000E+00 0.  1.
         21   -1    0    0  502  503 -0.00000000000E+00 -0.00000000000E+00 -0.80852712375E+01  0.80852712375E+01  0.00000000000E+00 0.  1.
          3    1    1    2  501    0  0.10863113753E+02 -0.20911198413E+02  0.20334712298E+02  0.31125327046E+02  0.00000000000E+00 0.  1.
         -3    1    1    2    0  503 -0.10863113753E+02  0.20911198413E+02  0.48917184744E+02  0.54297112472E+02  0.00000000000E+00 0. -1.
<mgrwt>
<rscale>  2 0.23564496E+02</rscale>
<asrwt>0</asrwt>
<pdfrwt beam="1">  1       21 0.11898025E-01 0.23564496E+02</pdfrwt>
<pdfrwt beam="2">  1       21 0.12438879E-02 0.23564496E+02</pdfrwt>
<totfact> 0.10835092E+08</totfact>
</mgrwt>
</event>
<event>
 4    1  0.7424968E+004  0.2399924E+02  0.7546771E-02  0.1675807E+00
         21   -1    0    0  503  502  0.00000000000E+00  0.00000000000E+00  0.10242305344E+03  0.10242305344E+03  0.00000000000E+00 0.  1.
         21   -1    0    0  501  503 -0.00000000000E+00 -0.00000000000E+00 -0.59697687702E+01  0.59697687702E+01  0.00000000000E+00 0.  1.
          4    1    1    2  501    0 -0.86406853125E+01 -0.22389772756E+02  0.35171667980E+02  0.42579450387E+02  0.00000000000E+00 0.  1.
         -4    1    1    2    0  502  0.86406853125E+01  0.22389772756E+02  0.61281616692E+02  0.65813371826E+02  0.00000000000E+00 0. -1.
<mgrwt>
<rscale>  2 0.23999237E+02</rscale>
<asrwt>0</asrwt>
<pdfrwt beam="1">  1       21 0.15757391E-01 0.23999237E+02</pdfrwt>
<pdfrwt beam="2">  1       21 0.91842604E-03 0.23999237E+02</pdfrwt>
<totfact> 0.10689142E+08</totfact>
</mgrwt>
</event>
<event>
 4    1  0.7424968E+004  0.2319251E+02  0.7546771E-02  0.1688409E+00
         21   -1    0    0  501  502  0.00000000000E+00  0.00000000000E+00  0.16482414206E+01  0.16482414206E+01  0.00000000000E+00 0. -1.
         21   -1    0    0  502  503 -0.00000000000E+00 -0.00000000000E+00 -0.41474381582E+03  0.41474381582E+03  0.00000000000E+00 0. -1.
          2    1    1    2  501    0  0.22037450863E+01  0.23087568923E+02 -0.30266699855E+03  0.30355428566E+03  0.00000000000E+00 0.  1.
         -2    1    1    2    0  503 -0.22037450863E+01 -0.23087568923E+02 -0.11042857585E+03  0.11283777158E+03  0.00000000000E+00 0. -1.
<mgrwt>
<rscale>  2 0.23192506E+02</rscale>
<asrwt>0</asrwt>
<pdfrwt beam="1">  1       21 0.25357548E-03 0.23192506E+02</pdfrwt>
<pdfrwt beam="2">  1       21 0.63806773E-01 0.23192506E+02</pdfrwt>
<totfact> 0.53693983E+07</totfact>
</mgrwt>
</event>
<event>
 4    1  0.7424968E+004  0.3461718E+02  0.7546771E-02  0.1552027E+00
         21   -1    0    0  503  502  0.00000000000E+00  0.00000000000E+00  0.15418128772E+02  0.15418128772E+02  0.00000000000E+00 0.  1.
         21   -1    0    0  501  503 -0.00000000000E+00 -0.00000000000E+00 -0.80365818984E+02  0.80365818984E+02  0.00000000000E+00 0.  1.
          5    1    1    2  501    0  0.88775076813E+01  0.33459516719E+02 -0.41158005299E+02  0.53780394215E+02  0.00000000000E+00 0. -1.
         -5    1    1    2    0  502 -0.88775076813E+01 -0.33459516719E+02 -0.23789684913E+02  0.42003553540E+02  0.00000000000E+00 0.  1.
<mgrwt>
<rscale>  2 0.34617184E+02</rscale>
<asrwt>0</asrwt>
<pdfrwt beam="1">  1       21 0.23720198E-02 0.34617184E+02</pdfrwt>
<pdfrwt beam="2">  1       21 0.12363972E-01 0.34617184E+02</pdfrwt>
<totfact> 0.41196194E+07</totfact>
</mgrwt>
</event>
<event>
 4    1  0.7424968E+004  0.3372828E+02  0.7546771E-02  0.1560193E+00
         21   -1    0    0  501  502  0.00000000000E+00  0.00000000000E+00  0.31526668339E+01  0.31526668339E+01  0.00000000000E+00 0. -1.
         21   -1    0    0  502  503 -0.00000000000E+00 -0.00000000000E+00 -0.37739126136E+03  0.37739126136E+03  0.00000000000E+00 0. -1.
          1    1    1    2  501    0 -0.27946911731E+02 -0.18882983240E+02 -0.14726806673E+03  0.15108103921E+03  0.00000000000E+00 0.  1.
         -1    1    1    2    0  503  0.27946911731E+02  0.18882983240E+02 -0.22697052779E+03  0.22946288898E+03  0.00000000000E+00 0. -1.
<mgrwt>
<rscale>  2 0.33728281E+02</rscale>
<asrwt>0</asrwt>
<pdfrwt beam="1">  1       21 0.48502577E-03 0.33728281E+02</pdfrwt>
<pdfrwt beam="2">  1       21 0.58060182E-01 0.33728281E+02</pdfrwt>
<totfact> 0.26941825E+07</totfact>
</mgrwt>
</event>
<event>
 4    1  0.7424968E+004  0.2857327E+02  0.7546771E-02  0.1614417E+00
         21   -1    0    0  501  502  0.00000000000E+00  0.00000000000E+00  0.16288309244E+03  0.16288309244E+03  0.00000000000E+00 0.  1.
         21   -1    0    0  502  503 -0.00000000000E+00 -0.00000000000E+00 -0.53627731812E+01  0.53627731812E+01  0.00000000000E+00 0.  1.
          3    1    1    2  501    0  0.13775325031E+02 -0.25033415606E+02  0.57257145833E+02  0.63990719840E+02  0.00000000000E+00 0.  1.
         -3    1    1    2    0  503 -0.13775325031E+02  0.25033415606E+02  0.10026317342E+03  0.10425514578E+03  0.00000000000E+00 0. -1.
<mgrwt>
<rscale>  2 0.28573265E+02</rscale>
<asrwt>0</asrwt>
<pdfrwt beam="1">  1       21 0.25058933E-01 0.28573265E+02</pdfrwt>
<pdfrwt beam="2">  1       21 0.82504215E-03 0.28573265E+02</pdfrwt>
<totfact> 0.58107533E+07</totfact>
</mgrwt>
</event>
<event>
 4    1  0.7424968E+004  0.3010635E+02  0.7546771E-02  0.1596916E+00
         21   -1    0    0  503  502  0.00000000000E+00  0.00000000000E+00  0.98692592082E+01  0.98692592082E+01  0.00000000000E+00 0. -1.
         21   -1    0    0  501  503 -0.00000000000E+00 -0.00000000000E+00 -0.12252395788E+03  0.12252395788E+03  0.00000000000E+00 0. -1.
          3    1    1    2  501    0 -0.93350778118E+01  0.28622518428E+02 -0.23200411117E+02  0.38008568967E+02  0.00000000000E+00 0.  1.
         -3    1    1    2    0  502  0.93350778118E+01 -0.28622518428E+02 -0.89454287552E+02  0.94384648119E+02  0.00000000000E+00 0. -1.
<mgrwt>
<rscale>  2 0.30106349E+02</rscale>
<asrwt>0</asrwt>
<pdfrwt beam="1">  1       21 0.15183477E-02 0.30106349E+02</pdfrwt>
<pdfrwt beam="2">  1       21 0.18849838E-01 0.30106349E+02</pdfrwt>
<totfact> 0.38574925E+07</totfact>
</mgrwt>
</event>
<event>
 4    1  0.7424968E+004  0.2277950E+02  0.7546771E-02  0.1695109E+00
         21   -1    0    0  501  502  0.00000000000E+00  0.00000000000E+00  0.10377119235E+02  0.10377119235E+02  0.00000000000E+00 0.  1.
         21   -1    0    0  502  503 -0.00000000000E+00 -0.00000000000E+00 -0.54835606123E+02  0.54835606123E+02  0.00000000000E+00 0.  1.
          1    1    1    2  501    0  0.15484521005E+01  0.22726809509E+02 -0.12551330961E+02  0.26008488677E+02  0.00000000000E+00 0. -1.
         -1    1    1    2    0  503 -0.15484521005E+01 -0.22726809509E+02 -0.31907155927E+02  0.39204236681E+02  0.00000000000E+00 0.  1.
<mgrwt>
<rscale>  2 0.22779499E+02</rscale>
<asrwt>0</asrwt>
<pdfrwt beam="1">  1       21 0.15964798E-02 0.22779499E+02</pdfrwt>
<pdfrwt beam="2">  1       21 0.84362473E-02 0.22779499E+02</pdfrwt>
<totfact> 0.12978681E+08</totfact>
</mgrwt>
</event>
<event>
 4    1  0.7424968E+004  0.2005126E+02  0.7546771E-02  0.1744311E+00
         21   -1    0    0  503  502  0.00000000000E+00  0.00000000000E+00  0.36314110573E+03  0.36314110573E+03  0.00000000000E+00 0.  1.
         21   -1    0    0  501  503 -0.00000000000E+00 -0.00000000000E+00 -0.11342050372E+01  0.11342050372E+01  0.00000000000E+00 0.  1.
          4    1    1    2  501    0  0.26270513813E+01  0.19878423378E+02  0.20913192614E+03  0.21009096993E+03  0.00000000000E+00 0.  1.
         -4    1    1    2    0  502 -0.26270513813E+01 -0.19878423378E+02  0.15287497455E+03  0.15418434084E+03  0.00000000000E+00 0. -1.
<mgrwt>
<rscale>  2 0.20051262E+02</rscale>
<asrwt>0</asrwt>
<pdfrwt beam="1">  1       21 0.55867770E-01 0.20051262E+02</pdfrwt>
<pdfrwt beam="2">  1       21 0.17449337E-03 0.20051262E+02</pdfrwt>
<totfact> 0.11558930E+08</totfact>
</mgrwt>
</event>
<event>
 4    1  0.7424968E+004  0.3333217E+02  0.7546771E-02  0.1563930E+00
         21   -1    0    0  501  502  0.00000000000E+00  0.00000000000E+00  0.13140354979E+03  0.13140354979E+03  0.00000000000E+00 0. -1.
         21   -1    0    0  502  503 -0.00000000000E+00 -0.00000000000E+00 -0.85149331661E+01  0.85149331661E+01  0.00000000000E+00 0. -1.
          1    1    1    2  501    0  0.27324116424E+02 -0.19089948019E+02  0.67307502828E+02  0.75108810340E+02  0.00000000000E+00 0. -1.
         -1    1    1    2    0  503 -0.27324116424E+02  0.19089948019E+02  0.55581113793E+02  0.64809672613E+02  0.00000000000E+00 0.  1.
<mgrwt>
<rscale>  2 0.33332168E+02</rscale>
<asrwt>0</asrwt>
<pdfrwt beam="1">  1       21 0.20215929E-01 0.33332168E+02</pdfrwt>
<pdfrwt beam="2">  1       21 0.13099898E-02 0.33332168E+02</pdfrwt>
<totfact> 0.43645290E+07</totfact>
</mgrwt>
</event>
<event>
 4    1  0.7424968E+004  0.2824160E+02  0.7546771E-02  0.1618380E+00
         21   -1    0    0  501  502  0.00000000000E+00  0.00000000000E+00  0.28083227572E+02  0.28083227572E+02  0.00000000000E+00 0.  1.
         21   -1    0    0  502  503 -0.00000000000E+00 -0.00000000000E+00 -0.68030765371E+02  0.68030765371E+02  0.00000000000E+00 0.  1.
          5    1    1    2  501    0 -0.18310197982E+02 -0.21501730130E+02 -0.56652599101E+02  0.63301696135E+02  0.00000000000E+00 0. -1.
         -5    1    1    2    0  503  0.18310197982E+02  0.21501730130E+02  0.16705061302E+02  0.32812296808E+02  0.00000000000E+00 0.  1.
<mgrwt>
<rscale>  2 0.28241596E+02</rscale>
<asrwt>0</asrwt>
<pdfrwt beam="1">  1       21 0.43204966E-02 0.28241596E+02</pdfrwt>
<pdfrwt beam="2">  1       21 0.10466272E-01 0.28241596E+02</pdfrwt>
<totfact> 0.20342102E+07</totfact>
</mgrwt>
</event>
<event>
 4    1  0.7424968E+004  0.2445270E+02  0.7546771E-02  0.1668990E+00
         21   -1    0    0  501  502  0.00000000000E+00  0.00000000000E+00  0.31866052296E+03  0.31866052296E+03  0.00000000000E+00 0. -1.
         21   -1    0    0  502  503 -0.00000000000E+00 -0.00000000000E+00 -0.19542246274E+01  0.19542246274E+01  0.00000000000E+00 0. -1.
          3    1    1    2  501    0 -0.19218598239E+02 -0.15118858413E+02  0.12636223881E+03  0.12870644814E+03  0.00000000000E+00 0. -1.
         -3    1    1    2    0  503  0.19218598239E+02  0.15118858413E+02  0.19034405953E+03  0.19190829944E+03  0.00000000000E+00 0.  1.
<mgrwt>
<rscale>  2 0.24452697E+02</rscale>
<asrwt>0</asrwt>
<pdfrwt beam="1">  1       21 0.49024655E-01 0.24452697E+02</pdfrwt>
<pdfrwt beam="2">  1       21 0.30065020E-03 0.24452697E+02</pdfrwt>
<totfact> 0.71510761E+07</totfact>
</mgrwt>
</event>
<event>
 4    1  0.7424968E+004  0.2395390E+02  0.7546771E-02  0.1676499E+00
         21   -1    0    0  501  502  0.00000000000E+00  0.00000000000E+00  0.37788640333E+03  0.37788640333E+03  0.00000000000E+00 0.  1.
         21   -1    0    0  502  503 -0.00000000000E+00 -0.00000000000E+00 -0.22941663422E+01  0.22941663422E+01  0.00000000000E+00 0.  1.
          1    1    1    2  501    0 -0.20455158508E+02 -0.12464979972E+02  0.77259008411E+02  0.80887227768E+02  0.00000000000E+00 0.  1.
         -1    1    1    2    0  503  0.20455158508E+02  0.12464979972E+02  0.29833322858E+03  0.29929334191E+03  0.00000000000E+00 0. -1.
<mgrwt>
<rscale>  2 0.23953898E+02</rscale>
<asrwt>0</asrwt>
<pdfrwt beam="1">  1       21 0.58136320E-01 0.23953898E+02</pdfrwt>
<pdfrwt beam="2">  1       21 0.35294897E-03 0.23953898E+02</pdfrwt>
<totfact> 0.40253123E+07</totfact>
</mgrwt>
</event>
<event>
 4    1  0.7424968E+004  0.3308645E+02  0.7546771E-02  0.1566281E+00
         21   -1    0    0  501  502  0.00000000000E+00  0.00000000000E+00  0.17606562364E+04  0.17606562364E+04  0.00000000000E+00 0.  1.
         21   -1    0    0  502  503 -0.00000000000E+00 -0.00000000000E+00 -0.10888513677E+01  0.10888513677E+01  0.00000000000E+00 0.  1.
          3    1    1    2  501    0  0.80674180899E+01  0.32087842387E+02  0.14567198815E+04  0.14570955789E+04  0.00000000000E+00 0.  1.
         -3    1    1    2    0  503 -0.80674180899E+01 -0.32087842387E+02  0.30284750353E+03  0.30464950887E+03  0.00000000000E+00 0. -1.
<mgrwt>
<rscale>  2 0.33086445E+02</rscale>
<asrwt>0</asrwt>
<pdfrwt beam="1">  1       21 0.27086791E+00 0.33086445E+02</pdfrwt>
<pdfrwt beam="2">  1       21 0.16751700E-03 0.33086445E+02</pdfrwt>
<totfact> 0.32237635E+06</totfact>
</mgrwt>
</event>
<event>
 4    1  0.7424968E+004  0.2328242E+02  0.7546771E-02  0.1686973E+00
         21   -1    0    0  501  502  0.00000000000E+00  0.00000000000E+00  0.46435264064E+02  0.46435264064E+02  0.00000000000E+00 0. -1.
         21   -1    0    0  502  503 -0.00000000000E+00 -0.00000000000E+00 -0.11968937311E+02  0.11968937311E+02  0.00000000000E+00 0. -1.
          5    1    1    2  501    0 -0.11945599368E+02 -0.19984343060E+02  0.21819568337E+02  0.31908695903E+02  0.00000000000E+00 0.  1.
         -5    1    1    2    0  503  0.11945599368E+02  0.19984343060E+02  0.12646758417E+02  0.26495505472E+02  0.00000000000E+00 0. -1.
<mgrwt>
<rscale>  2 0.23282425E+02</rscale>
<asrwt>0</asrwt>
<pdfrwt beam="1">  1       21 0.71438867E-02 0.23282425E+02</pdfrwt>
<pdfrwt beam="2">  1       21 0.18413750E-02 0.23282425E+02</pdfrwt>
<totfact> 0.13774354E+08</totfact>
</mgrwt>
</event>
<event>
 4    1  0.7424968E+004  0.2469267E+02  0.7546771E-02  0.1665456E+00
         21   -1    0    0  501  502  0.00000000000E+00  0.00000000000E+00  0.14589563156E+02  0.14589563156E+02  0.00000000000E+00 0.  1.
         21   -1    0    0  502  503 -0.00000000000E+00 -0.00000000000E+00 -0.17031693433E+03  0.17031693433E+03  0.00000000000E+00 0.  1.
          3    1    1    2  501    0  0.23273626048E+02 -0.82502235054E+01 -0.15817687253E+03  0.16009263212E+03  0.00000000000E+00 0. -1.
         -3    1    1    2    0  503 -0.23273626048E+02  0.82502235054E+01  0.24495013547E+01  0.24813865362E+02  0.00000000000E+00 0.  1.
<mgrwt>
<rscale>  2 0.24692668E+02</rscale>
<asrwt>0</asrwt>
<pdfrwt beam="1">  1       21 0.22445481E-02 0.24692668E+02</pdfrwt>
<pdfrwt beam="2">  1       21 0.26202607E-01 0.24692668E+02</pdfrwt>
<totfact> 0.11329293E+07</totfact>
</mgrwt>
</event>
<event>
 4    1  0.7424968E+004  0.2692429E+02  0.7546771E-02  0.1634808E+00
         21   -1    0    0  501  502  0.00000000000E+00  0.00000000000E+00  0.17752835423E+03  0.17752835423E+03  0.00000000000E+00 0. -1.
         21   -1    0    0  502  503 -0.00000000000E+00 -0.00000000000E+00 -0.53637774533E+01  0.53637774533E+01  0.00000000000E+00 0. -1.
          2    1    1    2  501    0  0.26904918532E+02  0.10211764077E+01  0.41403599831E+02  0.49388009895E+02  0.00000000000E+00 0. -1.
         -2    1    1    2    0  503 -0.26904918532E+02 -0.10211764077E+01  0.13076097694E+03  0.13350412179E+03  0.00000000000E+00 0.  1.
<mgrwt>
<rscale>  2 0.26924291E+02</rscale>
<asrwt>0</asrwt>
<pdfrwt beam="1">  1       21 0.27312050E-01 0.26924291E+02</pdfrwt>
<pdfrwt beam="2">  1       21 0.82519667E-03 0.26924291E+02</pdfrwt>
<totfact> 0.49065395E+07</totfact>
</mgrwt>
</event>
<event>
 4    1  0.7424968E+004  0.2026940E+02  0.7546771E-02  0.1740023E+00
         21   -1    0    0  501  502  0.00000000000E+00  0.00000000000E+00  0.22665585985E+01  0.22665585985E+01  0.00000000000E+00 0.  1.
         21   -1    0    0  502  503 -0.00000000000E+00 -0.00000000000E+00 -0.19609846149E+03  0.19609846149E+03  0.00000000000E+00 0.  1.
          1    1    1    2  501    0 -0.16163333904E+02  0.12230918788E+02 -0.69637931495E+02  0.72527858374E+02  0.00000000000E+00 0. -1.
         -1    1    1    2    0  503  0.16163333904E+02 -0.12230918788E+02 -0.12419397139E+03  0.12583716171E+03  0.00000000000E+00 0.  1.
<mgrwt>
<rscale>  2 0.20269404E+02</rscale>
<asrwt>0</asrwt>
<pdfrwt beam="1">  1       21 0.34870129E-03 0.20269404E+02</pdfrwt>
<pdfrwt beam="2">  1       21 0.30168997E-01 0.20269404E+02</pdfrwt>
<totfact> 0.13606469E+08</totfact>
</mgrwt>
</event>
<event>
 4    1  0.7424968E+004  0.2338473E+02  0.7546771E-02  0.1685349E+00
         21   -1    0    0  503  502  0.00000000000E+00  0.00000000000E+00  0.21900026842E+02  0.21900026842E+02  0.00000000000E+00 0. -1.
         21   -1    0    0  501  503 -0.00000000000E+00 -0.00000000000E+00 -0.25792375502E+02  0.25792375502E+02  0.00000000000E+00 0. -1.
          1    1    1    2  501    0 -0.33457777021E+01 -0.23144145132E+02  0.23116168057E+01  0.23498707509E+02  0.00000000000E+00 0. -1.
         -1    1    1    2    0  502  0.33457777021E+01  0.23144145132E+02 -0.62039654657E+01  0.24193694836E+02  0.00000000000E+00 0.  1.
<mgrwt>
<rscale>  2 0.23384732E+02</rscale>
<asrwt>0</asrwt>
<pdfrwt beam="1">  1       21 0.33692349E-02 0.23384732E+02</pdfrwt>
<pdfrwt beam="2">  1       21 0.39680578E-02 0.23384732E+02</pdfrwt>
<totfact> 0.13858299E+08</totfact>
</mgrwt>
</event>
<event>
 4    1  0.7424968E+004  0.2489290E+02  0.7546771E-02  0.1662545E+00
         21   -1    0    0  503  502  0.00000000000E+00  0.00000000000E+00  0.72737191042E+02  0.72737191042E+02  0.00000000000E+00 0.  1.
         21   -1    0    0  501  503 -0.00000000000E+00 -0.00000000000E+00 -0.88549787578E+01  0.88549787578E+01  0.00000000000E+00 0.  1.
          2    1    1    2  501    0 -0.22184388959E+02 -0.11291993895E+02  0.39886374476E+02  0.47016796025E+02  0.00000000000E+00 0. -1.
         -2    1    1    2    0  502  0.22184388959E+02  0.11291993895E+02  0.23995837808E+02  0.34575373775E+02  0.00000000000E+00 0.  1.
<mgrwt>
<rscale>  2 0.24892895E+02</rscale>
<asrwt>0</asrwt>
<pdfrwt beam="1">  1       21 0.11190337E-01 0.24892895E+02</pdfrwt>
<pdfrwt beam="2">  1       21 0.13623045E-02 0.24892895E+02</pdfrwt>
<totfact> 0.10619954E+08</totfact>
</mgrwt>
</event>
<event>
 4    1  0.7424968E+004  0.2970050E+02  0.7546771E-02  0.1601423E+00
         21   -1    0    0  501  502  0.00000000000E+00  0.00000000000E+00  0.38605680403E+02  0.38605680403E+02  0.00000000000E+00 0. -1.
         21   -1    0    0  502  503 -0.00000000000E+00 -0.00000000000E+00 -0.23262956937E+02  0.23262956937E+02  0.00000000000E+00 0. -1.
          3    1    1    2  501    0  0.74623584344E+01  0.28747750678E+02  0.35472495103E+01  0.29911585406E+02  0.00000000000E+00 0. -1.
         -3    1    1    2    0  503 -0.74623584344E+01 -0.28747750678E+02  0.11795473956E+02  0.31957051933E+02  0.00000000000E+00 0.  1.
<mgrwt>
<rscale>  2 0.29700504E+02</rscale>
<asrwt>0</asrwt>
<pdfrwt beam="1">  1       21 0.59393354E-02 0.29700504E+02</pdfrwt>
<pdfrwt beam="2">  1       21 0.35789165E-02 0.29700504E+02</pdfrwt>
<totfact> 0.70486713E+07</totfact>
</mgrwt>
</event>
<event>
 4    1  0.7424968E+004  0.2577769E+02  0.7546771E-02  0.1650077E+00
         21   -1    0    0  501  502  0.00000000000E+00  0.00000000000E+00  0.18672383557E+01  0.18672383557E+01  0.00000000000E+00 0.  1.
         21   -1    0    0  502  503 -0.00000000000E+00 -0.00000000000E+00 -0.37617326791E+03  0.37617326791E+03  0.00000000000E+00 0.  1.
          2    1    1    2  501    0 -0.18134455224E+02  0.18320231265E+02 -0.23106920827E+03  0.23250262009E+03  0.00000000000E+00 0.  1.
         -2    1    1    2    0  503  0.18134455224E+02 -0.18320231265E+02 -0.14323682129E+03  0.14553788618E+03  0.00000000000E+00 0. -1.
<mgrwt>
<rscale>  2 0.25777691E+02</rscale>
<asrwt>0</asrwt>
<pdfrwt beam="1">  1       21 0.28726732E-03 0.25777691E+02</pdfrwt>
<pdfrwt beam="2">  1       21 0.57872834E-01 0.25777691E+02</pdfrwt>
<totfact> 0.55784117E+07</totfact>
</mgrwt>
</event>
<event>
 4    1  0.7424968E+004  0.2385519E+02  0.7546771E-02  0.1678011E+00
         21   -1    0    0  501  502  0.00000000000E+00  0.00000000000E+00  0.89314756128E+02  0.89314756128E+02  0.00000000000E+00 0. -1.
         21   -1    0    0  502  503 -0.00000000000E+00 -0.00000000000E+00 -0.65641758406E+01  0.65641758406E+01  0.00000000000E+00 0. -1.
          1    1    1    2  501    0 -0.17330150951E+02 -0.16393171771E+02  0.33162305291E+02  0.40851055126E+02  0.00000000000E+00 0. -1.
         -1    1    1    2    0  503  0.17330150951E+02  0.16393171771E+02  0.49588274996E+02  0.55027876843E+02  0.00000000000E+00 0.  1.
<mgrwt>
<rscale>  2 0.23855193E+02</rscale>
<asrwt>0</asrwt>
<pdfrwt beam="1">  1       21 0.13740731E-01 0.23855193E+02</pdfrwt>
<pdfrwt beam="2">  1       21 0.10098733E-02 0.23855193E+02</pdfrwt>
<totfact> 0.11683080E+08</totfact>
</mgrwt>
</event>
<event>
 4    1  0.7424968E+004  0.5734206E+02  0.7546771E-02  0.1409337E+00
         21   -1    0    0  503  502  0.00000000000E+00  0.00000000000E+00  0.17512444482E+02  0.17512444482E+02  0.00000000000E+00 0. -1.
         21   -1    0    0  501  503 -0.00000000000E+00 -0.00000000000E+00 -0.19358766004E+03  0.19358766004E+03  0.00000000000E+00 0. -1.
          4    1    1    2  501    0 -0.11593475646E+02  0.56157837451E+02 -0.69722043001E+02  0.90273333078E+02  0.00000000000E+00 0. -1.
         -4    1    1    2    0  502  0.11593475646E+02 -0.56157837451E+02 -0.10635317256E+03  0.12082677145E+03  0.00000000000E+00 0.  1.
<mgrwt>
<rscale>  2 0.57342056E+02</rscale>
<asrwt>0</asrwt>
<pdfrwt beam="1">  1       21 0.26942225E-02 0.57342056E+02</pdfrwt>
<pdfrwt beam="2">  1       21 0.29782714E-01 0.57342056E+02</pdfrwt>
<totfact> 0.75343034E+06</totfact>
</mgrwt>
</event>
<event>
 4    1  0.7424968E+004  0.2258743E+02  0.7546771E-02  0.1698286E+00
         21   -1    0    0  503  502  0.00000000000E+00  0.00000000000E+00  0.51153053422E+02  0.51153053422E+02  0.00000000000E+00 0. -1.
         21   -1    0    0  501  503 -0.00000000000E+00 -0.00000000000E+00 -0.10754663153E+02  0.10754663153E+02  0.00000000000E+00 0. -1.
          4    1    1    2  501    0 -0.77861153601E+01 -0.21203032764E+02  0.11858664133E+02  0.25511176096E+02  0.00000000000E+00 0. -1.
         -4    1    1    2    0  502  0.77861153601E+01  0.21203032764E+02  0.28539726137E+02  0.36396540478E+02  0.00000000000E+00 0.  1.
<mgrwt>
<rscale>  2 0.22587434E+02</rscale>
<asrwt>0</asrwt>
<pdfrwt beam="1">  1       21 0.78697004E-02 0.22587434E+02</pdfrwt>
<pdfrwt beam="2">  1       21 0.16545636E-02 0.22587434E+02</pdfrwt>
<totfact> 0.13733444E+08</totfact>
</mgrwt>
</event>
<event>
 4    1  0.7424968E+004  0.4125168E+02  0.7546771E-02  0.1499197E+00
         21   -1    0    0  503  502  0.00000000000E+00  0.00000000000E+00  0.14323104260E+03  0.14323104260E+03  0.00000000000E+00 0. -1.
         21   -1    0    0  501  503 -0.00000000000E+00 -0.00000000000E+00 -0.12570785455E+02  0.12570785455E+02  0.00000000000E+00 0. -1.
          1    1    1    2  501    0 -0.43759571203E+01  0.41018921034E+02  0.47079493109E+02  0.62595363686E+02  0.00000000000E+00 0. -1.
         -1    1    1    2    0  502  0.43759571203E+01 -0.41018921034E+02  0.83580764037E+02  0.93206464371E+02  0.00000000000E+00 0.  1.
<mgrwt>
<rscale>  2 0.41251677E+02</rscale>
<asrwt>0</asrwt>
<pdfrwt beam="1">  1       21 0.22035544E-01 0.41251677E+02</pdfrwt>
<pdfrwt beam="2">  1       21 0.19339671E-02 0.41251677E+02</pdfrwt>
<totfact> 0.21258854E+07</totfact>
</mgrwt>
</event>
<event>
 4    1  0.7424968E+004  0.2016262E+02  0.7546771E-02  0.1742113E+00
         21   -1    0    0  501  502  0.00000000000E+00  0.00000000000E+00  0.38901208983E+02  0.38901208983E+02  0.00000000000E+00 0. -1.
         21   -1    0    0  502  503 -0.00000000000E+00 -0.00000000000E+00 -0.12404350947E+02  0.12404350947E+02  0.00000000000E+00 0. -1.
          2    1    1    2  501    0 -0.15437225953E+02  0.12970088219E+02  0.23429890655E+02  0.30911015991E+02  0.00000000000E+00 0.  1.
         -2    1    1    2    0  503  0.15437225953E+02 -0.12970088219E+02  0.30669673816E+01  0.20394543938E+02  0.00000000000E+00 0. -1.
<mgrwt>
<rscale>  2 0.20162617E+02</rscale>
<asrwt>0</asrwt>
<pdfrwt beam="1">  1       21 0.59848013E-02 0.20162617E+02</pdfrwt>
<pdfrwt beam="2">  1       21 0.19083617E-02 0.20162617E+02</pdfrwt>
<totfact> 0.16592634E+08</totfact>
</mgrwt>
</event>
<event>
 4    1  0.7424968E+004  0.2293343E+02  0.7546771E-02  0.1692592E+00
         21   -1    0    0  501  502  0.00000000000E+00  0.00000000000E+00  0.57367507945E+00  0.57367507945E+00  0.00000000000E+00 0.  1.
         21   -1    0    0  502  503 -0.00000000000E+00 -0.00000000000E+00 -0.10327843599E+04  0.10327843599E+04  0.00000000000E+00 0.  1.
          5    1    1    2  501    0 -0.85949612759E+01  0.21261906203E+02 -0.68925692966E+03  0.68963835240E+03  0.00000000000E+00 0. -1.
         -5    1    1    2    0  503  0.85949612759E+01 -0.21261906203E+02 -0.34295375511E+03  0.34371968253E+03  0.00000000000E+00 0.  1.
<mgrwt>
<rscale>  2 0.22933426E+02</rscale>
<asrwt>0</asrwt>
<pdfrwt beam="1">  1       21 0.88257565E-04 0.22933426E+02</pdfrwt>
<pdfrwt beam="2">  1       21 0.15889015E+00 0.22933426E+02</pdfrwt>
<totfact> 0.32871847E+07</totfact>
</mgrwt>
</event>
<event>
 4    1  0.7424968E+004  0.2194935E+02  0.7546771E-02  0.1709129E+00
         21   -1    0    0  503  502  0.00000000000E+00  0.00000000000E+00  0.10792467417E+01  0.10792467417E+01  0.00000000000E+00 0. -1.
         21   -1    0    0  501  503 -0.00000000000E+00 -0.00000000000E+00 -0.44644122681E+03  0.44644122681E+03  0.00000000000E+00 0. -1.
          1    1    1    2  501    0  0.66683455956E+01 -0.20911891654E+02 -0.22049003997E+03  0.22157985416E+03  0.00000000000E+00 0.  1.
         -1    1    1    2    0  502 -0.66683455956E+01  0.20911891654E+02 -0.22487194010E+03  0.22594061939E+03  0.00000000000E+00 0. -1.
<mgrwt>
<rscale>  2 0.21949352E+02</rscale>
<asrwt>0</asrwt>
<pdfrwt beam="1">  1       21 0.16603750E-03 0.21949352E+02</pdfrwt>
<pdfrwt beam="2">  1       21 0.68683454E-01 0.21949352E+02</pdfrwt>
<totfact> 0.84090270E+07</totfact>
</mgrwt>
</event>
<event>
 4    1  0.7424968E+004  0.2199563E+02  0.7546771E-02  0.1708328E+00
         21   -1    0    0  503  502  0.00000000000E+00  0.00000000000E+00  0.29227765246E+03  0.29227765246E+03  0.00000000000E+00 0. -1.
         21   -1    0    0  501  503 -0.00000000000E+00 -0.00000000000E+00 -0.18411873933E+01  0.18411873933E+01  0.00000000000E+00 0. -1.
          5    1    1    2  501    0  0.21919082957E+02 -0.18333964462E+01  0.98491280439E+02  0.10091749037E+03  0.00000000000E+00 0. -1.
         -5    1    1    2    0  502 -0.21919082957E+02  0.18333964462E+01  0.19194518463E+03  0.19320134949E+03  0.00000000000E+00 0.  1.
<mgrwt>
<rscale>  2 0.21995625E+02</rscale>
<asrwt>0</asrwt>
<pdfrwt beam="1">  1       21 0.44965756E-01 0.21995625E+02</pdfrwt>
<pdfrwt beam="2">  1       21 0.28325983E-03 0.21995625E+02</pdfrwt>
<totfact> 0.89698427E+07</totfact>
</mgrwt>
</event>
<event>
 4    1  0.7424968E+004  0.2911623E+02  0.7546771E-02  0.1608068E+00
         21   -1    0    0  503  502  0.00000000000E+00  0.00000000000E+00  0.35714173476E+01  0.35714173476E+01  0.00000000000E+00 0.  1.
         21   -1    0    0  501  503 -0.00000000000E+00 -0.00000000000E+00 -0.23920294828E+03  0.23920294828E+03  0.00000000000E+00 0.  1.
          5    1    1    2  501    0  0.12908121953E+02 -0.26098563152E+02 -0.10719579733E+03  0.11107967220E+03  0.00000000000E+00 0.  1.
         -5    1    1    2    0  502 -0.12908121953E+02  0.26098563152E+02 -0.12843573360E+03  0.13169469342E+03  0.00000000000E+00 0. -1.
<mgrwt>
<rscale>  2 0.29116226E+02</rscale>
<asrwt>0</asrwt>
<pdfrwt beam="1">  1       21 0.54944882E-03 0.29116226E+02</pdfrwt>
<pdfrwt beam="2">  1       21 0.36800454E-01 0.29116226E+02</pdfrwt>
<totfact> 0.52892889E+07</totfact>
</mgrwt>
</event>
<event>
 4    1  0.7424968E+004  0.3154972E+02  0.7546771E-02  0.1581564E+00
         21   -1    0    0  501  502  0.00000000000E+00  0.00000000000E+00  0.46048912267E+02  0.46048912267E+02  0.00000000000E+00 0.  1.
         21   -1    0    0  502  503 -0.00000000000E+00 -0.00000000000E+00 -0.29639330025E+02  0.29639330025E+02  0.00000000000E+00 0.  1.
          3    1    1    2  501    0  0.45432841975E+01  0.31220885257E+02  0.27894820706E+02  0.42113016156E+02  0.00000000000E+00 0.  1.
         -3    1    1    2    0  503 -0.45432841975E+01 -0.31220885257E+02 -0.11485238464E+02  0.33575226136E+02  0.00000000000E+00 0. -1.
<mgrwt>
<rscale>  2 0.31549724E+02</rscale>
<asrwt>0</asrwt>
<pdfrwt beam="1">  1       21 0.70844480E-02 0.31549724E+02</pdfrwt>
<pdfrwt beam="2">  1       21 0.45598969E-02 0.31549724E+02</pdfrwt>
<totfact> 0.36412744E+07</totfact>
</mgrwt>
</event>
<event>
 4    1  0.7424968E+004  0.2007691E+02  0.7546771E-02  0.1743803E+00
         21   -1    0    0  503  502  0.00000000000E+00  0.00000000000E+00  0.49401323983E+02  0.49401323983E+02  0.00000000000E+00 0. -1.
         21   -1    0    0  501  503 -0.00000000000E+00 -0.00000000000E+00 -0.81817281714E+01  0.81817281714E+01  0.00000000000E+00 0. -1.
          3    1    1    2  501    0  0.19750588721E+02  0.36050708910E+01  0.19103768726E+02  0.27713467313E+02  0.00000000000E+00 0.  1.
         -3    1    1    2    0  502 -0.19750588721E+02 -0.36050708910E+01  0.22115827085E+02  0.29869584842E+02  0.00000000000E+00 0. -1.
<mgrwt>
<rscale>  2 0.20076909E+02</rscale>
<asrwt>0</asrwt>
<pdfrwt beam="1">  1       21 0.76002035E-02 0.20076909E+02</pdfrwt>
<pdfrwt beam="2">  1       21 0.12587274E-02 0.20076909E+02</pdfrwt>
<totfact> 0.21189417E+08</totfact>
</mgrwt>
</event>
<event>
 4    1  0.7424968E+004  0.2180759E+02  0.7546771E-02  0.1711601E+00
         21   -1    0    0  501  502  0.00000000000E+00  0.00000000000E+00  0.19010628607E+02  0.19010628607E+02  0.00000000000E+00 0. -1.
         21   -1    0    0  502  503 -0.00000000000E+00 -0.00000000000E+00 -0.33317751244E+02  0.33317751244E+02  0.00000000000E+00 0. -1.
          5    1    1    2  501    0  0.12540513815E+01 -0.21771502201E+02 -0.20213851943E+02  0.29735009052E+02  0.00000000000E+00 0.  1.
         -5    1    1    2    0  503 -0.12540513815E+01  0.21771502201E+02  0.59067293048E+01  0.22593370799E+02  0.00000000000E+00 0. -1.
<mgrwt>
<rscale>  2 0.21807589E+02</rscale>
<asrwt>0</asrwt>
<pdfrwt beam="1">  1       21 0.29247121E-02 0.21807589E+02</pdfrwt>
<pdfrwt beam="2">  1       21 0.51258078E-02 0.21807589E+02</pdfrwt>
<totfact> 0.11282985E+08</totfact>
</mgrwt>
</event>
<event>
 4    1  0.7424968E+004  0.2715698E+02  0.7546771E-02  0.1631823E+00
         21   -1    0    0  501  502  0.00000000000E+00  0.00000000000E+00  0.15594958389E+03  0.15594958389E+03  0.00000000000E+00 0. -1.
         21   -1    0    0  502  503 -0.00000000000E+00 -0.00000000000E+00 -0.48304098219E+01  0.48304098219E+01  0.00000000000E+00 0. -1.
          2    1    1    2  501    0  0.73159390630E+01  0.26152984650E+02  0.63917512031E+02  0.69447461543E+02  0.00000000000E+00 0. -1.
         -2    1    1    2    0  503 -0.73159390630E+01 -0.26152984650E+02  0.87201662039E+02  0.91332532171E+02  0.00000000000E+00 0.  1.
<mgrwt>
<rscale>  2 0.27156980E+02</rscale>
<asrwt>0</asrwt>
<pdfrwt beam="1">  1       21 0.23992240E-01 0.27156980E+02</pdfrwt>
<pdfrwt beam="2">  1       21 0.74314009E-03 0.27156980E+02</pdfrwt>
<totfact> 0.72637228E+07</totfact>
</mgrwt>
</event>
<event>
 4    1  0.7424968E+004  0.3344971E+02  0.7546771E-02  0.1562815E+00
         21   -1    0    0  503  502  0.00000000000E+00  0.00000000000E+00  0.99201902418E+02  0.99201902418E+02  0.00000000000E+00 0. -1.
         21   -1    0    0  501  503 -0.00000000000E+00 -0.00000000000E+00 -0.11293929370E+02  0.11293929370E+02  0.00000000000E+00 0. -1.
          2    1    1    2  501    0 -0.13844430597E+02 -0.30450201282E+02  0.45972990969E+02  0.56854189954E+02  0.00000000000E+00 0. -1.
         -2    1    1    2    0  502  0.13844430597E+02  0.30450201282E+02  0.41934982078E+02  0.53641641834E+02  0.00000000000E+00 0.  1.
<mgrwt>
<rscale>  2 0.33449709E+02</rscale>
<asrwt>0</asrwt>
<pdfrwt beam="1">  1       21 0.15261831E-01 0.33449709E+02</pdfrwt>
<pdfrwt beam="2">  1       21 0.17375277E-02 0.33449709E+02</pdfrwt>
<totfact> 0.46252577E+07</totfact>
</mgrwt>
</event>
<event>
 4    1  0.7424968E+004  0.2751931E+02  0.7546771E-02  0.1627248E+00
         21   -1    0    0  503  502  0.00000000000E+00  0.00000000000E+00  0.90310836479E+01  0.90310836479E+01  0.00000000000E+00 0. -1.
         21   -1    0    0  501  503 -0.00000000000E+00 -0.00000000000E+00 -0.83974505554E+02  0.83974505554E+02  0.00000000000E+00 0. -1.
          3    1    1    2  501    0  0.26075746486E+02 -0.87958895708E+01 -0.35726154127E+02  0.45096233955E+02  0.00000000000E+00 0.  1.
         -3    1    1    2    0  502 -0.26075746486E+02  0.87958895708E+01 -0.39217267778E+02  0.47909355247E+02  0.00000000000E+00 0. -1.
<mgrwt>
<rscale>  2 0.27519306E+02</rscale>
<asrwt>0</asrwt>
<pdfrwt beam="1">  1       21 0.13893974E-02 0.27519306E+02</pdfrwt>
<pdfrwt beam="2">  1       21 0.12919155E-01 0.27519306E+02</pdfrwt>
<totfact> 0.83034450E+07</totfact>
</mgrwt>
</event>
<event>
 4    1  0.7424968E+004  0.3158259E+02  0.7546771E-02  0.1581226E+00
         21   -1    0    0  501  502  0.00000000000E+00  0.00000000000E+00  0.23719464216E+03  0.23719464216E+03  0.00000000000E+00 0.  1.
         21   -1    0    0  502  503 -0.00000000000E+00 -0.00000000000E+00 -0.42223494980E+01  0.42223494980E+01  0.00000000000E+00 0.  1.
          2    1    1    2  501    0  0.30982035510E+02 -0.61297175281E+01  0.12417041770E+03  0.12812397353E+03  0.00000000000E+00 0. -1.
         -2    1    1    2    0  503 -0.30982035510E+02  0.61297175281E+01  0.10880187496E+03  0.11329301813E+03  0.00000000000E+00 0.  1.
<mgrwt>
<rscale>  2 0.31582590E+02</rscale>
<asrwt>0</asrwt>
<pdfrwt beam="1">  1       21 0.36491473E-01 0.31582590E+02</pdfrwt>
<pdfrwt beam="2">  1       21 0.64959242E-03 0.31582590E+02</pdfrwt>
<totfact> 0.42533662E+07</totfact>
</mgrwt>
</event>
<event>
 4    1  0.7424968E+004  0.2238783E+02  0.7546771E-02  0.1701630E+00
         21   -1    0    0  501  502  0.00000000000E+00  0.00000000000E+00  0.41295185303E+02  0.41295185303E+02  0.00000000000E+00 0. -1.
         21   -1    0    0  502  503 -0.00000000000E+00 -0.00000000000E+00 -0.12308661514E+02  0.12308661514E+02  0.00000000000E+00 0. -1.
          4    1    1    2  501    0 -0.19037738945E+02 -0.11780477264E+02  0.11331550941E+02  0.25092213841E+02  0.00000000000E+00 0. -1.
         -4    1    1    2    0  503  0.19037738945E+02  0.11780477264E+02  0.17654972848E+02  0.28511632976E+02  0.00000000000E+00 0.  1.
<mgrwt>
<rscale>  2 0.22387835E+02</rscale>
<asrwt>0</asrwt>
<pdfrwt beam="1">  1       21 0.63531054E-02 0.22387835E+02</pdfrwt>
<pdfrwt beam="2">  1       21 0.18936403E-02 0.22387835E+02</pdfrwt>
<totfact> 0.15763058E+08</totfact>
</mgrwt>
</event>
<event>
 4    1  0.7424968E+004  0.2734524E+02  0.7546771E-02  0.1629435E+00
         21   -1    0    0  503  502  0.00000000000E+00  0.00000000000E+00  0.95262276701E+03  0.95262276701E+03  0.00000000000E+00 0.  1.
         21   -1    0    0  501  503 -0.00000000000E+00 -0.00000000000E+00 -0.11425768362E+01  0.11425768362E+01  0.00000000000E+00 0.  1.
          4    1    1    2  501    0 -0.24764245630E+02 -0.11597157596E+02  0.20894155534E+03  0.21072336243E+03  0.00000000000E+00 0.  1.
         -4    1    1    2    0  502  0.24764245630E+02  0.11597157596E+02  0.74253863483E+03  0.74304198141E+03  0.00000000000E+00 0. -1.
<mgrwt>
<rscale>  2 0.27345236E+02</rscale>
<asrwt>0</asrwt>
<pdfrwt beam="1">  1       21 0.14655671E+00 0.27345236E+02</pdfrwt>
<pdfrwt beam="2">  1       21 0.17578181E-03 0.27345236E+02</pdfrwt>
<totfact> 0.15279115E+07</totfact>
</mgrwt>
</event>
<event>
 4    1  0.7424968E+004  0.2679518E+02  0.7546771E-02  0.1636480E+00
         21   -1    0    0  501  502  0.00000000000E+00  0.00000000000E+00  0.79514870626E+00  0.79514870626E+00  0.00000000000E+00 0.  1.
         21   -1    0    0  502  503 -0.00000000000E+00 -0.00000000000E+00 -0.10168776729E+04  0.10168776729E+04  0.00000000000E+00 0.  1.
          2    1    1    2  501    0 -0.65753649849E+01 -0.25975878660E+02 -0.67835639201E+03  0.67888539260E+03  0.00000000000E+00 0. -1.
         -2    1    1    2    0  503  0.65753649849E+01  0.25975878660E+02 -0.33772613217E+03  0.33878742900E+03  0.00000000000E+00 0.  1.
<mgrwt>
<rscale>  2 0.26795180E+02</rscale>
<asrwt>0</asrwt>
<pdfrwt beam="1">  1       21 0.12233084E-03 0.26795180E+02</pdfrwt>
<pdfrwt beam="2">  1       21 0.15644237E+00 0.26795180E+02</pdfrwt>
<totfact> 0.21969721E+07</totfact>
</mgrwt>
</event>
<event>
 4    1  0.7424968E+004  0.2123434E+02  0.7546771E-02  0.1721840E+00
         21   -1    0    0  503  502  0.00000000000E+00  0.00000000000E+00  0.13898460879E+02  0.13898460879E+02  0.00000000000E+00 0. -1.
         21   -1    0    0  501  503 -0.00000000000E+00 -0.00000000000E+00 -0.39426139431E+02  0.39426139431E+02  0.00000000000E+00 0. -1.
          1    1    1    2  501    0  0.75689587516E+01  0.19839561973E+02 -0.15422560726E+01  0.21290277351E+02  0.00000000000E+00 0. -1.
         -1    1    1    2    0  502 -0.75689587516E+01 -0.19839561973E+02 -0.23985422480E+02  0.32034322959E+02  0.00000000000E+00 0.  1.
<mgrwt>
<rscale>  2 0.21234344E+02</rscale>
<asrwt>0</asrwt>
<pdfrwt beam="1">  1       21 0.21382247E-02 0.21234344E+02</pdfrwt>
<pdfrwt beam="2">  1       21 0.60655599E-02 0.21234344E+02</pdfrwt>
<totfact> 0.13871025E+08</totfact>
</mgrwt>
</event>
<event>
 4    1  0.7424968E+004  0.2611998E+02  0.7546771E-02  0.1645417E+00
         21   -1    0    0  503  502  0.00000000000E+00  0.00000000000E+00  0.52587763291E+02  0.52587763291E+02  0.00000000000E+00 0.  1.
         21   -1    0    0  501  503 -0.00000000000E+00 -0.00000000000E+00 -0.13012379666E+02  0.13012379666E+02  0.00000000000E+00 0.  1.
          4    1    1    2  501    0 -0.12916485455E+01  0.26088021219E+02  0.17997356309E+02  0.31719994344E+02  0.00000000000E+00 0.  1.
         -4    1    1    2    0  502  0.12916485455E+01 -0.26088021219E+02  0.21578027316E+02  0.33880148612E+02  0.00000000000E+00 0. -1.
<mgrwt>
<rscale>  2 0.26119977E+02</rscale>
<asrwt>0</asrwt>
<pdfrwt beam="1">  1       21 0.80904250E-02 0.26119977E+02</pdfrwt>
<pdfrwt beam="2">  1       21 0.20019046E-02 0.26119977E+02</pdfrwt>
<totfact> 0.10211462E+08</totfact>
</mgrwt>
</event>
<event>
 4    1  0.7424968E+004  0.3173057E+02  0.7546771E-02  0.1579711E+00
         21   -1    0    0  501  502  0.00000000000E+00  0.00000000000E+00  0.17453162639E+03  0.17453162639E+03  0.00000000000E+00 0. -1.
         21   -1    0    0  502  503 -0.00000000000E+00 -0.00000000000E+00 -0.61147402156E+01  0.61147402156E+01  0.00000000000E+00 0. -1.
          3    1    1    2  501    0 -0.30322340162E+02  0.93479737844E+01  0.62723037740E+02  0.70292306764E+02  0.00000000000E+00 0.  1.
         -3    1    1    2    0  503  0.30322340162E+02 -0.93479737844E+01  0.10569384843E+03  0.11035405984E+03  0.00000000000E+00 0. -1.
<mgrwt>
<rscale>  2 0.31730568E+02</rscale>
<asrwt>0</asrwt>
<pdfrwt beam="1">  1       21 0.26851016E-01 0.31730568E+02</pdfrwt>
<pdfrwt beam="2">  1       21 0.94072940E-03 0.31730568E+02</pdfrwt>
<totfact> 0.42999820E+07</totfact>
</mgrwt>
</event>
<event>
 4    1  0.7424968E+004  0.2208011E+02  0.7546771E-02  0.1706870E+00
         21   -1    0    0  503  502  0.00000000000E+00  0.00000000000E+00  0.35658875855E+02  0.35658875855E+02  0.00000000000E+00 0.  1.
         21   -1    0    0  501  503 -0.00000000000E+00 -0.00000000000E+00 -0.16715471674E+02  0.16715471674E+02  0.00000000000E+00 0.  1.
          2    1    1    2  501    0 -0.10045213255E+02  0.19662776106E+02 -0.17022832124E+01  0.22145628049E+02  0.00000000000E+00 0.  1.
         -2    1    1    2    0  502  0.10045213255E+02 -0.19662776106E+02  0.20645687393E+02  0.30228719481E+02  0.00000000000E+00 0. -1.
<mgrwt>
<rscale>  2 0.22080106E+02</rscale>
<asrwt>0</asrwt>
<pdfrwt beam="1">  1       21 0.54859809E-02 0.22080106E+02</pdfrwt>
<pdfrwt beam="2">  1       21 0.25716110E-02 0.22080106E+02</pdfrwt>
<totfact> 0.12404836E+08</totfact>
</mgrwt>
</event>
<event>
 4    1  0.7424968E+004  0.2086137E+02  0.7546771E-02  0.1728722E+00
         21   -1    0    0  501  502  0.00000000000E+00  0.00000000000E+00  0.98621051449E+01  0.98621051449E+01  0.00000000000E+00 0. -1.
         21   -1    0    0  502  503 -0.00000000000E+00 -0.00000000000E+00 -0.47374928326E+02  0.47374928326E+02  0.00000000000E+00 0. -1.
          4    1    1    2  501    0  0.12827124402E+01  0.20821897000E+02 -0.26248401528E+02  0.33528723934E+02  0.00000000000E+00 0. -1.
         -4    1    1    2    0  503 -0.12827124402E+01 -0.20821897000E+02 -0.11264421653E+02  0.23708309537E+02  0.00000000000E+00 0.  1.
<mgrwt>
<rscale>  2 0.20861370E+02</rscale>
<asrwt>0</asrwt>
<pdfrwt beam="1">  1       21 0.15172469E-02 0.20861370E+02</pdfrwt>
<pdfrwt beam="2">  1       21 0.72884507E-02 0.20861370E+02</pdfrwt>
<totfact> 0.17315557E+08</totfact>
</mgrwt>
</event>
<event>
 4    1  0.7424968E+004  0.2850643E+02  0.7546771E-02  0.1615210E+00
         21   -1    0    0  503  502  0.00000000000E+00  0.00000000000E+00  0.76830252427E+02  0.76830252427E+02  0.00000000000E+00 0.  1.
         21   -1    0    0  501  503 -0.00000000000E+00 -0.00000000000E+00 -0.20403510198E+02  0.20403510198E+02  0.00000000000E+00 0.  1.
          1    1    1    2  501    0 -0.24544880329E+02  0.14497091414E+02  0.61952908962E+02  0.68196625566E+02  0.00000000000E+00 0. -1.
         -1    1    1    2    0  502  0.24544880329E+02 -0.14497091414E+02 -0.55261667326E+01  0.29037137059E+02  0.00000000000E+00 0.  1.
<mgrwt>
<rscale>  2 0.28506435E+02</rscale>
<asrwt>0</asrwt>
<pdfrwt beam="1">  1       21 0.11820039E-01 0.28506435E+02</pdfrwt>
<pdfrwt beam="2">  1       21 0.31390016E-02 0.28506435E+02</pdfrwt>
<totfact> 0.27547719E+07</totfact>
</mgrwt>
</event>
<event>
 4    1  0.7424968E+004  0.2782019E+02  0.7546771E-02  0.1623514E+00
         21   -1    0    0  501  502  0.00000000000E+00  0.00000000000E+00  0.61278729329E+01  0.61278729329E+01  0.00000000000E+00 0.  1.
         21   -1    0    0  502  503 -0.00000000000E+00 -0.00000000000E+00 -0.12729222465E+03  0.12729222465E+03  0.00000000000E+00 0.  1.
          3    1    1    2  501    0  0.27569703375E+02 -0.37248621190E+01 -0.54698644867E+02  0.61366969065E+02  0.00000000000E+00 0. -1.
         -3    1    1    2    0  503 -0.27569703375E+02  0.37248621190E+01 -0.66465706845E+02  0.72053128513E+02  0.00000000000E+00 0.  1.
<mgrwt>
<rscale>  2 0.27820193E+02</rscale>
<asrwt>0</asrwt>
<pdfrwt beam="1">  1       21 0.94274970E-03 0.27820193E+02</pdfrwt>
<pdfrwt beam="2">  1       21 0.19583419E-01 0.27820193E+02</pdfrwt>
<totfact> 0.73198485E+07</totfact>
</mgrwt>
</event>
<event>
 4    1  0.7424968E+004  0.2468195E+02  0.7546771E-02  0.1665613E+00
         21   -1    0    0  503  502  0.00000000000E+00  0.00000000000E+00  0.20299552964E+03  0.20299552964E+03  0.00000000000E+00 0. -1.
         21   -1    0    0  501  503 -0.00000000000E+00 -0.00000000000E+00 -0.30470333108E+01  0.30470333108E+01  0.00000000000E+00 0. -1.
          2    1    1    2  501    0  0.24657819277E+02 -0.10911559345E+01  0.11263073457E+03  0.11530343032E+03  0.00000000000E+00 0.  1.
         -2    1    1    2    0  502 -0.24657819277E+02  0.10911559345E+01  0.87317761756E+02  0.90739132632E+02  0.00000000000E+00 0. -1.
<mgrwt>
<rscale>  2 0.24681950E+02</rscale>
<asrwt>0</asrwt>
<pdfrwt beam="1">  1       21 0.31230071E-01 0.24681950E+02</pdfrwt>
<pdfrwt beam="2">  1       21 0.46877452E-03 0.24681950E+02</pdfrwt>
<totfact> 0.87384595E+07</totfact>
</mgrwt>
</event>
<event>
 4    1  0.7424968E+004  0.3449122E+02  0.7546771E-02  0.1553166E+00
         21   -1    0    0  501  502  0.00000000000E+00  0.00000000000E+00  0.66941177773E+02  0.66941177773E+02  0.00000000000E+00 0.  1.
         21   -1    0    0  502  503 -0.00000000000E+00 -0.00000000000E+00 -0.18570517167E+02  0.18570517167E+02  0.00000000000E+00 0.  1.
          3    1    1    2  501    0 -0.20423459648E+02  0.27794361072E+02  0.15316520364E+02  0.37739104487E+02  0.00000000000E+00 0.  1.
         -3    1    1    2    0  503  0.20423459648E+02 -0.27794361072E+02  0.33054140243E+02  0.47772590453E+02  0.00000000000E+00 0. -1.
<mgrwt>
<rscale>  2 0.34491219E+02</rscale>
<asrwt>0</asrwt>
<pdfrwt beam="1">  1       21 0.10298643E-01 0.34491219E+02</pdfrwt>
<pdfrwt beam="2">  1       21 0.28570027E-02 0.34491219E+02</pdfrwt>
<totfact> 0.41885652E+07</totfact>
</mgrwt>
</event>
<event>
 4    1  0.7424968E+004  0.6431717E+02  0.7546771E-02  0.1380559E+00
         21   -1    0    0  503  502  0.00000000000E+00  0.00000000000E+00  0.11276761252E+04  0.11276761252E+04  0.00000000000E+00 0. -1.
         21   -1    0    0  501  503 -0.00000000000E+00 -0.00000000000E+00 -0.44946759093E+01  0.44946759093E+01  0.00000000000E+00 0. -1.
          1    1    1    2  501    0  0.62648641692E+02  0.14554931093E+02  0.80431395063E+03  0.80688142220E+03  0.00000000000E+00 0.  1.
         -1    1    1    2    0  502 -0.62648641692E+02 -0.14554931093E+02  0.31886749870E+03  0.32528937894E+03  0.00000000000E+00 0. -1.
<mgrwt>
<rscale>  2 0.64317170E+02</rscale>
<asrwt>0</asrwt>
<pdfrwt beam="1">  1       21 0.17348841E+00 0.64317170E+02</pdfrwt>
<pdfrwt beam="2">  1       21 0.69148950E-03 0.64317170E+02</pdfrwt>
<totfact> 0.13809345E+06</totfact>
</mgrwt>
</event>
<event>
 4    1  0.7424968E+004  0.2121897E+02  0.7546771E-02  0.1722120E+00
         21   -1    0    0  503  502  0.00000000000E+00  0.00000000000E+00  0.28407975203E+01  0.28407975203E+01  0.00000000000E+00 0. -1.
         21   -1    0    0  501  503 -0.00000000000E+00 -0.00000000000E+00 -0.16278997548E+03  0.16278997548E+03  0.00000000000E+00 0. -1.
          4    1    1    2  501    0 -0.14341136735E+02 -0.15638941442E+02 -0.93430440220E+02  0.95809664711E+02  0.00000000000E+00 0.  1.
         -4    1    1    2    0  502  0.14341136735E+02  0.15638941442E+02 -0.66518737739E+02  0.69821108289E+02  0.00000000000E+00 0. -1.
<mgrwt>
<rscale>  2 0.21218970E+02</rscale>
<asrwt>0</asrwt>
<pdfrwt beam="1">  1       21 0.43704572E-03 0.21218970E+02</pdfrwt>
<pdfrwt beam="2">  1       21 0.25044615E-01 0.21218970E+02</pdfrwt>
<totfact> 0.13842699E+08</totfact>
</mgrwt>
</event>
<event>
 4    1  0.7424968E+004  0.2248275E+02  0.7546771E-02  0.1700034E+00
         21   -1    0    0  503  502  0.00000000000E+00  0.00000000000E+00  0.12068948525E+01  0.12068948525E+01  0.00000000000E+00 0. -1.
         21   -1    0    0  501  503 -0.00000000000E+00 -0.00000000000E+00 -0.41909514560E+03  0.41909514560E+03  0.00000000000E+00 0. -1.
          1    1    1    2  501    0 -0.58443386820E+00 -0.22475154640E+02 -0.21430896891E+03  0.21548505353E+03  0.00000000000E+00 0. -1.
         -1    1    1    2    0  502  0.58443386820E+00  0.22475154640E+02 -0.20357928183E+03  0.20481698692E+03  0.00000000000E+00 0.  1.
<mgrwt>
<rscale>  2 0.22482752E+02</rscale>
<asrwt>0</asrwt>
<pdfrwt beam="1">  1       21 0.18567606E-03 0.22482752E+02</pdfrwt>
<pdfrwt beam="2">  1       21 0.64476200E-01 0.22482752E+02</pdfrwt>
<totfact> 0.81895141E+07</totfact>
</mgrwt>
</event>
<event>
 4    1  0.7424968E+004  0.3202438E+02  0.7546771E-02  0.1576733E+00
         21   -1    0    0  503  502  0.00000000000E+00  0.00000000000E+00  0.46455393742E+03  0.46455393742E+03  0.00000000000E+00 0. -1.
         21   -1    0    0  501  503 -0.00000000000E+00 -0.00000000000E+00 -0.25184546984E+01  0.25184546984E+01  0.00000000000E+00 0. -1.
          2    1    1    2  501    0  0.14136731599E+01  0.31993167072E+02  0.14897353938E+03  0.15237675888E+03  0.00000000000E+00 0. -1.
         -2    1    1    2    0  502 -0.14136731599E+01 -0.31993167072E+02  0.31306194334E+03  0.31469563323E+03  0.00000000000E+00 0.  1.
<mgrwt>
<rscale>  2 0.32024385E+02</rscale>
<asrwt>0</asrwt>
<pdfrwt beam="1">  1       21 0.71469769E-01 0.32024385E+02</pdfrwt>
<pdfrwt beam="2">  1       21 0.38745494E-03 0.32024385E+02</pdfrwt>
<totfact> 0.24344530E+07</totfact>
</mgrwt>
</event>
<event>
 4    1  0.7424968E+004  0.3561330E+02  0.7546771E-02  0.1543221E+00
         21   -1    0    0  501  502  0.00000000000E+00  0.00000000000E+00  0.23071902234E+02  0.23071902234E+02  0.00000000000E+00 0. -1.
         21   -1    0    0  502  503 -0.00000000000E+00 -0.00000000000E+00 -0.67349379793E+02  0.67349379793E+02  0.00000000000E+00 0. -1.
          1    1    1    2  501    0  0.25438710731E+02 -0.24923458679E+02 -0.27571398704E+01  0.35719863051E+02  0.00000000000E+00 0.  1.
         -1    1    1    2    0  503 -0.25438710731E+02  0.24923458679E+02 -0.41520337688E+02  0.54701418975E+02  0.00000000000E+00 0. -1.
<mgrwt>
<rscale>  2 0.35613295E+02</rscale>
<asrwt>0</asrwt>
<pdfrwt beam="1">  1       21 0.35495235E-02 0.35613295E+02</pdfrwt>
<pdfrwt beam="2">  1       21 0.10361443E-01 0.35613295E+02</pdfrwt>
<totfact> 0.29577755E+07</totfact>
</mgrwt>
</event>
<event>
 4    1  0.7424968E+004  0.2307583E+02  0.7546771E-02  0.1690284E+00
         21   -1    0    0  503  502  0.00000000000E+00  0.00000000000E+00  0.19756087458E+03  0.19756087458E+03  0.00000000000E+00 0. -1.
         21   -1    0    0  501  503 -0.00000000000E+00 -0.00000000000E+00 -0.27086717276E+01  0.27086717276E+01  0.00000000000E+00 0. -1.
          5    1    1    2  501    0  0.11945680696E+02 -0.19743213367E+02  0.10445111506E+03  0.10696975834E+03  0.00000000000E+00 0. -1.
         -5    1    1    2    0  502 -0.11945680696E+02  0.19743213367E+02  0.90401087792E+02  0.93299787970E+02  0.00000000000E+00 0.  1.
<mgrwt>
<rscale>  2 0.23075826E+02</rscale>
<asrwt>0</asrwt>
<pdfrwt beam="1">  1       21 0.30393969E-01 0.23075826E+02</pdfrwt>
<pdfrwt beam="2">  1       21 0.41671888E-03 0.23075826E+02</pdfrwt>
<totfact> 0.10728730E+08</totfact>
</mgrwt>
</event>
<event>
 4    1  0.7424968E+004  0.2053252E+02  0.7546771E-02  0.1734941E+00
         21   -1    0    0  503  502  0.00000000000E+00  0.00000000000E+00  0.41521875195E+02  0.41521875195E+02  0.00000000000E+00 0.  1.
         21   -1    0    0  501  503 -0.00000000000E+00 -0.00000000000E+00 -0.10164234463E+02  0.10164234463E+02  0.00000000000E+00 0.  1.
          5    1    1    2  501    0 -0.86197743568E+01  0.18635548486E+02  0.16526334456E+02  0.26357236347E+02  0.00000000000E+00 0.  1.
         -5    1    1    2    0  502  0.86197743568E+01 -0.18635548486E+02  0.14831306277E+02  0.25328873311E+02  0.00000000000E+00 0. -1.
<mgrwt>
<rscale>  2 0.20532515E+02</rscale>
<asrwt>0</asrwt>
<pdfrwt beam="1">  1       21 0.63879807E-02 0.20532515E+02</pdfrwt>
<pdfrwt beam="2">  1       21 0.15637284E-02 0.20532515E+02</pdfrwt>
<totfact> 0.20352020E+08</totfact>
</mgrwt>
</event>
<event>
 4    1  0.7424968E+004  0.2459560E+02  0.7546771E-02  0.1666879E+00
         21   -1    0    0  501  502  0.00000000000E+00  0.00000000000E+00  0.26706398409E+03  0.26706398409E+03  0.00000000000E+00 0. -1.
         21   -1    0    0  502  503 -0.00000000000E+00 -0.00000000000E+00 -0.22723561563E+01  0.22723561563E+01  0.00000000000E+00 0. -1.
          1    1    1    2  501    0  0.71889925478E+01  0.23521517848E+02  0.13997270407E+03  0.14211720973E+03  0.00000000000E+00 0.  1.
         -1    1    1    2    0  503 -0.71889925478E+01 -0.23521517848E+02  0.12481892386E+03  0.12721913051E+03  0.00000000000E+00 0. -1.
<mgrwt>
<rscale>  2 0.24595597E+02</rscale>
<asrwt>0</asrwt>
<pdfrwt beam="1">  1       21 0.41086742E-01 0.24595597E+02</pdfrwt>
<pdfrwt beam="2">  1       21 0.34959347E-03 0.24595597E+02</pdfrwt>
<totfact> 0.80615662E+07</totfact>
</mgrwt>
</event>
<event>
 4    1  0.7424968E+004  0.2367478E+02  0.7546771E-02  0.1680800E+00
         21   -1    0    0  501  502  0.00000000000E+00  0.00000000000E+00  0.15041901625E+02  0.15041901625E+02  0.00000000000E+00 0. -1.
         21   -1    0    0  502  503 -0.00000000000E+00 -0.00000000000E+00 -0.37399376611E+02  0.37399376611E+02  0.00000000000E+00 0. -1.
          4    1    1    2  501    0 -0.11534889384E+01 -0.23646665099E+02 -0.95911047581E+01  0.25543778058E+02  0.00000000000E+00 0.  1.
         -4    1    1    2    0  503  0.11534889384E+01  0.23646665099E+02 -0.12766370228E+02  0.26897500178E+02  0.00000000000E+00 0. -1.
<mgrwt>
<rscale>  2 0.23674782E+02</rscale>
<asrwt>0</asrwt>
<pdfrwt beam="1">  1       21 0.23141387E-02 0.23674782E+02</pdfrwt>
<pdfrwt beam="2">  1       21 0.57537502E-02 0.23674782E+02</pdfrwt>
<totfact> 0.13813264E+08</totfact>
</mgrwt>
</event>
<event>
 4    1  0.7424968E+004  0.2649359E+02  0.7546771E-02  0.1640431E+00
         21   -1    0    0  501  502  0.00000000000E+00  0.00000000000E+00  0.54395177846E+02  0.54395177846E+02  0.00000000000E+00 0. -1.
         21   -1    0    0  502  503 -0.00000000000E+00 -0.00000000000E+00 -0.22091235788E+02  0.22091235788E+02  0.00000000000E+00 0. -1.
          5    1    1    2  501    0  0.12475393636E+02  0.23372524982E+02 -0.85106314253E+01  0.27826987219E+02  0.00000000000E+00 0. -1.
         -5    1    1    2    0  503 -0.12475393636E+02 -0.23372524982E+02  0.40814573483E+02  0.48659426415E+02  0.00000000000E+00 0.  1.
<mgrwt>
<rscale>  2 0.26493591E+02</rscale>
<asrwt>0</asrwt>
<pdfrwt beam="1">  1       21 0.83684888E-02 0.26493591E+02</pdfrwt>
<pdfrwt beam="2">  1       21 0.33986517E-02 0.26493591E+02</pdfrwt>
<totfact> 0.42520843E+07</totfact>
</mgrwt>
</event>
<event>
 4    1  0.7424968E+004  0.2136453E+02  0.7546771E-02  0.1719480E+00
         21   -1    0    0  503  502  0.00000000000E+00  0.00000000000E+00  0.12184286652E+02  0.12184286652E+02  0.00000000000E+00 0.  1.
         21   -1    0    0  501  503 -0.00000000000E+00 -0.00000000000E+00 -0.43541420595E+02  0.43541420595E+02  0.00000000000E+00 0.  1.
          3    1    1    2  501    0 -0.75331824671E+01 -0.19992357599E+02 -0.26090196777E+02  0.33721529745E+02  0.00000000000E+00 0.  1.
         -3    1    1    2    0  502  0.75331824671E+01  0.19992357599E+02 -0.52669371651E+01  0.22004177502E+02  0.00000000000E+00 0. -1.
<mgrwt>
<rscale>  2 0.21364531E+02</rscale>
<asrwt>0</asrwt>
<pdfrwt beam="1">  1       21 0.18745056E-02 0.21364531E+02</pdfrwt>
<pdfrwt beam="2">  1       21 0.66986801E-02 0.21364531E+02</pdfrwt>
<totfact> 0.14491656E+08</totfact>
</mgrwt>
</event>
<event>
 4    1  0.7424968E+004  0.2134913E+02  0.7546771E-02  0.1719758E+00
         21   -1    0    0  503  502  0.00000000000E+00  0.00000000000E+00  0.13130155261E+02  0.13130155261E+02  0.00000000000E+00 0. -1.
         21   -1    0    0  501  503 -0.00000000000E+00 -0.00000000000E+00 -0.35233271424E+02  0.35233271424E+02  0.00000000000E+00 0. -1.
          1    1    1    2  501    0  0.16160746455E+02  0.13950469932E+02 -0.81126842321E+01  0.22838585394E+02  0.00000000000E+00 0. -1.
         -1    1    1    2    0  502 -0.16160746455E+02 -0.13950469932E+02 -0.13990431931E+02  0.25524841291E+02  0.00000000000E+00 0.  1.
<mgrwt>
<rscale>  2 0.21349130E+02</rscale>
<asrwt>0</asrwt>
<pdfrwt beam="1">  1       21 0.20200239E-02 0.21349130E+02</pdfrwt>
<pdfrwt beam="2">  1       21 0.54205032E-02 0.21349130E+02</pdfrwt>
<totfact> 0.18141712E+08</totfact>
</mgrwt>
</event>
<event>
 4    1  0.7424968E+004  0.2242468E+02  0.7546771E-02  0.1701009E+00
         21   -1    0    0  503  502  0.00000000000E+00  0.00000000000E+00  0.71836700169E+01  0.71836700169E+01  0.00000000000E+00 0. -1.
         21   -1    0    0  501  503 -0.00000000000E+00 -0.00000000000E+00 -0.77149216354E+02  0.77149216354E+02  0.00000000000E+00 0. -1.
          2    1    1    2  501    0 -0.13911469188E+02  0.17587985224E+02 -0.47817632481E+02  0.52814696584E+02  0.00000000000E+00 0.  1.
         -2    1    1    2    0  502  0.13911469188E+02 -0.17587985224E+02 -0.22147913856E+02  0.31518189786E+02  0.00000000000E+00 0. -1.
<mgrwt>
<rscale>  2 0.22424678E+02</rscale>
<asrwt>0</asrwt>
<pdfrwt beam="1">  1       21 0.11051800E-02 0.22424678E+02</pdfrwt>
<pdfrwt beam="2">  1       21 0.11869110E-01 0.22424678E+02</pdfrwt>
<totfact> 0.12818749E+08</totfact>
</mgrwt>
</event>
<event>
 4    1  0.7424968E+004  0.2629736E+02  0.7546771E-02  0.1643038E+00
         21   -1    0    0  501  502  0.00000000000E+00  0.00000000000E+00  0.22328923236E+03  0.22328923236E+03  0.00000000000E+00 0.  1.
         21   -1    0    0  502  503 -0.00000000000E+00 -0.00000000000E+00 -0.31920657481E+01  0.31920657481E+01  0.00000000000E+00 0.  1.
          2    1    1    2  501    0  0.69302288400E+01  0.25367756460E+02  0.12957978011E+03  0.13222129387E+03  0.00000000000E+00 0.  1.
         -2    1    1    2    0  503 -0.69302288400E+01 -0.25367756460E+02  0.90517386503E+02  0.94260004238E+02  0.00000000000E+00 0. -1.
<mgrwt>
<rscale>  2 0.26297360E+02</rscale>
<asrwt>0</asrwt>
<pdfrwt beam="1">  1       21 0.34352177E-01 0.26297360E+02</pdfrwt>
<pdfrwt beam="2">  1       21 0.49108721E-03 0.26297360E+02</pdfrwt>
<totfact> 0.69471936E+07</totfact>
</mgrwt>
</event>
<event>
 4    1  0.7424968E+004  0.2263756E+02  0.7546771E-02  0.1697453E+00
         21   -1    0    0  503  502  0.00000000000E+00  0.00000000000E+00  0.23221656923E+03  0.23221656923E+03  0.00000000000E+00 0. -1.
         21   -1    0    0  501  503 -0.00000000000E+00 -0.00000000000E+00 -0.22223118159E+01  0.22223118159E+01  0.00000000000E+00 0. -1.
          4    1    1    2  501    0 -0.22627509828E+02  0.67436000974E+00  0.12478574141E+03  0.12682247522E+03  0.00000000000E+00 0. -1.
         -4    1    1    2    0  502  0.22627509828E+02 -0.67436000974E+00  0.10520851601E+03  0.10761640583E+03  0.00000000000E+00 0.  1.
<mgrwt>
<rscale>  2 0.22637556E+02</rscale>
<asrwt>0</asrwt>
<pdfrwt beam="1">  1       21 0.35725607E-01 0.22637556E+02</pdfrwt>
<pdfrwt beam="2">  1       21 0.34189431E-03 0.22637556E+02</pdfrwt>
<totfact> 0.10595884E+08</totfact>
</mgrwt>
</event>
<event>
 4    1  0.7424968E+004  0.2042065E+02  0.7546771E-02  0.1737090E+00
         21   -1    0    0  501  502  0.00000000000E+00  0.00000000000E+00  0.42736234755E+02  0.42736234755E+02  0.00000000000E+00 0. -1.
         21   -1    0    0  502  503 -0.00000000000E+00 -0.00000000000E+00 -0.16334452267E+02  0.16334452267E+02  0.00000000000E+00 0. -1.
          3    1    1    2  501    0  0.19655989071E+02 -0.55357861357E+01 -0.55403769005E+01  0.21158889638E+02  0.00000000000E+00 0.  1.
         -3    1    1    2    0  503 -0.19655989071E+02  0.55357861357E+01  0.31942159388E+02  0.37911797384E+02  0.00000000000E+00 0. -1.
<mgrwt>
<rscale>  2 0.20420647E+02</rscale>
<asrwt>0</asrwt>
<pdfrwt beam="1">  1       21 0.65748053E-02 0.20420647E+02</pdfrwt>
<pdfrwt beam="2">  1       21 0.25129927E-02 0.20420647E+02</pdfrwt>
<totfact> 0.93996993E+07</totfact>
</mgrwt>
</event>
<event>
 4    1  0.7424968E+004  0.2077337E+02  0.7546771E-02  0.1730372E+00
         21   -1    0    0  503  502  0.00000000000E+00  0.00000000000E+00  0.17742167243E+01  0.17742167243E+01  0.00000000000E+00 0.  1.
         21   -1    0    0  501  503 -0.00000000000E+00 -0.00000000000E+00 -0.24513925667E+03  0.24513925667E+03  0.00000000000E+00 0.  1.
          3    1    1    2  501    0 -0.20703036101E+02  0.17079794551E+01 -0.11077137957E+03  0.11270240206E+03  0.00000000000E+00 0. -1.
         -3    1    1    2    0  502  0.20703036101E+02 -0.17079794551E+01 -0.13259366037E+03  0.13421107133E+03  0.00000000000E+00 0.  1.
<mgrwt>
<rscale>  2 0.20773370E+02</rscale>
<asrwt>0</asrwt>
<pdfrwt beam="1">  1       21 0.27295637E-03 0.20773370E+02</pdfrwt>
<pdfrwt beam="2">  1       21 0.37713738E-01 0.20773370E+02</pdfrwt>
<totfact> 0.12983739E+08</totfact>
</mgrwt>
</event>
<event>
 4    1  0.7424968E+004  0.2342370E+02  0.7546771E-02  0.1684733E+00
         21   -1    0    0  503  502  0.00000000000E+00  0.00000000000E+00  0.14908737412E+03  0.14908737412E+03  0.00000000000E+00 0. -1.
         21   -1    0    0  501  503 -0.00000000000E+00 -0.00000000000E+00 -0.40826752820E+01  0.40826752820E+01  0.00000000000E+00 0. -1.
          3    1    1    2  501    0 -0.10898626554E+02 -0.20733783629E+02  0.96548552345E+02  0.99349347276E+02  0.00000000000E+00 0.  1.
         -3    1    1    2    0  502  0.10898626554E+02  0.20733783629E+02  0.48456146492E+02  0.53820702125E+02  0.00000000000E+00 0. -1.
<mgrwt>
<rscale>  2 0.23423703E+02</rscale>
<asrwt>0</asrwt>
<pdfrwt beam="1">  1       21 0.22936515E-01 0.23423703E+02</pdfrwt>
<pdfrwt beam="2">  1       21 0.62810400E-03 0.23423703E+02</pdfrwt>
<totfact> 0.97422162E+07</totfact>
</mgrwt>
</event>
<event>
 4    1  0.7424968E+004  0.2600781E+02  0.7546771E-02  0.1646935E+00
         21   -1    0    0  503  502  0.00000000000E+00  0.00000000000E+00  0.55248556627E+01  0.55248556627E+01  0.00000000000E+00 0.  1.
         21   -1    0    0  501  503 -0.00000000000E+00 -0.00000000000E+00 -0.17747742320E+03  0.17747742320E+03  0.00000000000E+00 0.  1.
          4    1    1    2  501    0  0.33203991449E+01  0.25794978748E+02 -0.13693575831E+03  0.13938367151E+03  0.00000000000E+00 0.  1.
         -4    1    1    2    0  502 -0.33203991449E+01 -0.25794978748E+02 -0.35016809224E+02  0.43618607352E+02  0.00000000000E+00 0. -1.
<mgrwt>
<rscale>  2 0.26007806E+02</rscale>
<asrwt>0</asrwt>
<pdfrwt beam="1">  1       21 0.84997789E-03 0.26007806E+02</pdfrwt>
<pdfrwt beam="2">  1       21 0.27304216E-01 0.26007806E+02</pdfrwt>
<totfact> 0.46594456E+07</totfact>
</mgrwt>
</event>
<event>
 4    1  0.7424968E+004  0.2229632E+02  0.7546771E-02  0.1703177E+00
         21   -1    0    0  503  502  0.00000000000E+00  0.00000000000E+00  0.22796755007E+01  0.22796755007E+01  0.00000000000E+00 0.  1.
         21   -1    0    0  501  503 -0.00000000000E+00 -0.00000000000E+00 -0.21824395984E+03  0.21824395984E+03  0.00000000000E+00 0.  1.
          4    1    1    2  501    0  0.10104403646E+02 -0.19875283927E+02 -0.10485758082E+03  0.10720185698E+03  0.00000000000E+00 0.  1.
         -4    1    1    2    0  502 -0.10104403646E+02  0.19875283927E+02 -0.11110670352E+03  0.11332177836E+03  0.00000000000E+00 0. -1.
<mgrwt>
<rscale>  2 0.22296320E+02</rscale>
<asrwt>0</asrwt>
<pdfrwt beam="1">  1       21 0.35071922E-03 0.22296320E+02</pdfrwt>
<pdfrwt beam="2">  1       21 0.33576003E-01 0.22296320E+02</pdfrwt>
<totfact> 0.11401946E+08</totfact>
</mgrwt>
</event>
<event>
 4    1  0.7424968E+004  0.2121823E+02  0.7546771E-02  0.1722134E+00
         21   -1    0    0  503  502  0.00000000000E+00  0.00000000000E+00  0.15309760802E+02  0.15309760802E+02  0.00000000000E+00 0.  1.
         21   -1    0    0  501  503 -0.00000000000E+00 -0.00000000000E+00 -0.30187905503E+02  0.30187905503E+02  0.00000000000E+00 0.  1.
          2    1    1    2  501    0 -0.10947791064E+01 -0.21189969042E+02 -0.11098022786E+02  0.23945342742E+02  0.00000000000E+00 0.  1.
         -2    1    1    2    0  502  0.10947791064E+01  0.21189969042E+02 -0.37801219147E+01  0.21552323563E+02  0.00000000000E+00 0. -1.
<mgrwt>
<rscale>  2 0.21218231E+02</rscale>
<asrwt>0</asrwt>
<pdfrwt beam="1">  1       21 0.23553478E-02 0.21218231E+02</pdfrwt>
<pdfrwt beam="2">  1       21 0.46442931E-02 0.21218231E+02</pdfrwt>
<totfact> 0.18281826E+08</totfact>
</mgrwt>
</event>
<event>
 4    1  0.7424968E+004  0.2671422E+02  0.7546771E-02  0.1637534E+00
         21   -1    0    0  501  502  0.00000000000E+00  0.00000000000E+00  0.77580862249E+02  0.77580862249E+02  0.00000000000E+00 0. -1.
         21   -1    0    0  502  503 -0.00000000000E+00 -0.00000000000E+00 -0.10131753006E+02  0.10131753006E+02  0.00000000000E+00 0. -1.
          4    1    1    2  501    0 -0.16782945111E+02 -0.20784179203E+02  0.47032901237E+02  0.54090139125E+02  0.00000000000E+00 0. -1.
         -4    1    1    2    0  503  0.16782945111E+02  0.20784179203E+02  0.20416208006E+02  0.33622476129E+02  0.00000000000E+00 0.  1.
<mgrwt>
<rscale>  2 0.26714216E+02</rscale>
<asrwt>0</asrwt>
<pdfrwt beam="1">  1       21 0.11935517E-01 0.26714216E+02</pdfrwt>
<pdfrwt beam="2">  1       21 0.15587313E-02 0.26714216E+02</pdfrwt>
<totfact> 0.79036785E+07</totfact>
</mgrwt>
</event>
<event>
 4    1  0.7424968E+004  0.2708315E+02  0.7546771E-02  0.1632766E+00
         21   -1    0    0  501  502  0.00000000000E+00  0.00000000000E+00  0.88809737879E+02  0.88809737879E+02  0.00000000000E+00 0.  1.
         21   -1    0    0  502  503 -0.00000000000E+00 -0.00000000000E+00 -0.12762176769E+02  0.12762176769E+02  0.00000000000E+00 0.  1.
          4    1    1    2  501    0 -0.11246429476E+02  0.24637667286E+02  0.68190731966E+02  0.73372152424E+02  0.00000000000E+00 0.  1.
         -4    1    1    2    0  503  0.11246429476E+02 -0.24637667286E+02  0.78568291437E+01  0.28199762223E+02  0.00000000000E+00 0. -1.
<mgrwt>
<rscale>  2 0.27083147E+02</rscale>
<asrwt>0</asrwt>
<pdfrwt beam="1">  1       21 0.13663036E-01 0.27083147E+02</pdfrwt>
<pdfrwt beam="2">  1       21 0.19634119E-02 0.27083147E+02</pdfrwt>
<totfact> 0.44247441E+07</totfact>
</mgrwt>
</event>
<event>
 4    1  0.7424968E+004  0.2258219E+02  0.7546771E-02  0.1698373E+00
         21   -1    0    0  501  502  0.00000000000E+00  0.00000000000E+00  0.30994158608E+03  0.30994158608E+03  0.00000000000E+00 0. -1.
         21   -1    0    0  502  503 -0.00000000000E+00 -0.00000000000E+00 -0.16894137804E+01  0.16894137804E+01  0.00000000000E+00 0. -1.
          2    1    1    2  501    0  0.19851804757E+02  0.10763892157E+02  0.17929662995E+03  0.18071313466E+03  0.00000000000E+00 0. -1.
         -2    1    1    2    0  503 -0.19851804757E+02 -0.10763892157E+02  0.12895554234E+03  0.13091786520E+03  0.00000000000E+00 0.  1.
<mgrwt>
<rscale>  2 0.22582195E+02</rscale>
<asrwt>0</asrwt>
<pdfrwt beam="1">  1       21 0.47683276E-01 0.22582195E+02</pdfrwt>
<pdfrwt beam="2">  1       21 0.25991006E-03 0.22582195E+02</pdfrwt>
<totfact> 0.91431278E+07</totfact>
</mgrwt>
</event>
<event>
 4    1  0.7424968E+004  0.2049481E+02  0.7546771E-02  0.1735663E+00
         21   -1    0    0  503  502  0.00000000000E+00  0.00000000000E+00  0.49060357739E+02  0.49060357739E+02  0.00000000000E+00 0.  1.
         21   -1    0    0  501  503 -0.00000000000E+00 -0.00000000000E+00 -0.99714470251E+01  0.99714470251E+01  0.00000000000E+00 0.  1.
          5    1    1    2  501    0  0.14202391207E+02 -0.14775974000E+02  0.30642747989E+02  0.36864825077E+02  0.00000000000E+00 0. -1.
         -5    1    1    2    0  502 -0.14202391207E+02  0.14775974000E+02  0.84461627248E+01  0.22166979687E+02  0.00000000000E+00 0.  1.
<mgrwt>
<rscale>  2 0.20494812E+02</rscale>
<asrwt>0</asrwt>
<pdfrwt beam="1">  1       21 0.75477472E-02 0.20494812E+02</pdfrwt>
<pdfrwt beam="2">  1       21 0.15340688E-02 0.20494812E+02</pdfrwt>
<totfact> 0.16003572E+08</totfact>
</mgrwt>
</event>
<event>
 4    1  0.7424968E+004  0.2260774E+02  0.7546771E-02  0.1697949E+00
         21   -1    0    0  503  502  0.00000000000E+00  0.00000000000E+00  0.13596143349E+03  0.13596143349E+03  0.00000000000E+00 0. -1.
         21   -1    0    0  501  503 -0.00000000000E+00 -0.00000000000E+00 -0.38076893002E+01  0.38076893002E+01  0.00000000000E+00 0. -1.
          2    1    1    2  501    0  0.22598315034E+02 -0.65260055723E+00  0.58192668361E+02  0.62429931771E+02  0.00000000000E+00 0.  1.
         -2    1    1    2    0  502 -0.22598315034E+02  0.65260055723E+00  0.73961075831E+02  0.77339191022E+02  0.00000000000E+00 0. -1.
<mgrwt>
<rscale>  2 0.22607736E+02</rscale>
<asrwt>0</asrwt>
<pdfrwt beam="1">  1       21 0.20917140E-01 0.22607736E+02</pdfrwt>
<pdfrwt beam="2">  1       21 0.58579846E-03 0.22607736E+02</pdfrwt>
<totfact> 0.12580261E+08</totfact>
</mgrwt>
</event>
<event>
 4    1  0.7424968E+004  0.2095491E+02  0.7546771E-02  0.1726979E+00
         21   -1    0    0  501  502  0.00000000000E+00  0.00000000000E+00  0.65689250163E+02  0.65689250163E+02  0.00000000000E+00 0.  1.
         21   -1    0    0  502  503 -0.00000000000E+00 -0.00000000000E+00 -0.87421038092E+01  0.87421038092E+01  0.00000000000E+00 0.  1.
          5    1    1    2  501    0  0.16772538109E+02  0.12561449632E+02  0.46528076807E+02  0.51029109172E+02  0.00000000000E+00 0.  1.
         -5    1    1    2    0  503 -0.16772538109E+02 -0.12561449632E+02  0.10419069546E+02  0.23402244800E+02  0.00000000000E+00 0. -1.
<mgrwt>
<rscale>  2 0.20954905E+02</rscale>
<asrwt>0</asrwt>
<pdfrwt beam="1">  1       21 0.10106038E-01 0.20954905E+02</pdfrwt>
<pdfrwt beam="2">  1       21 0.13449391E-02 0.20954905E+02</pdfrwt>
<totfact> 0.12204905E+08</totfact>
</mgrwt>
</event>
<event>
 4    1  0.7424968E+004  0.2803265E+02  0.7546771E-02  0.1620912E+00
         21   -1    0    0  501  502  0.00000000000E+00  0.00000000000E+00  0.10189720867E+03  0.10189720867E+03  0.00000000000E+00 0.  1.
         21   -1    0    0  502  503 -0.00000000000E+00 -0.00000000000E+00 -0.94235764456E+01  0.94235764456E+01  0.00000000000E+00 0.  1.
          2    1    1    2  501    0  0.23603227346E+02 -0.15123397379E+02  0.69958130951E+02  0.75365572881E+02  0.00000000000E+00 0.  1.
         -2    1    1    2    0  503 -0.23603227346E+02  0.15123397379E+02  0.22515501278E+02  0.35955212240E+02  0.00000000000E+00 0. -1.
<mgrwt>
<rscale>  2 0.28032650E+02</rscale>
<asrwt>0</asrwt>
<pdfrwt beam="1">  1       21 0.15676493E-01 0.28032650E+02</pdfrwt>
<pdfrwt beam="2">  1       21 0.14497811E-02 0.28032650E+02</pdfrwt>
<totfact> 0.56154465E+07</totfact>
</mgrwt>
</event>
<event>
 4    1  0.7424968E+004  0.3848251E+02  0.7546771E-02  0.1519685E+00
         21   -1    0    0  503  502  0.00000000000E+00  0.00000000000E+00  0.14135547861E+03  0.14135547861E+03  0.00000000000E+00 0.  1.
         21   -1    0    0  501  503 -0.00000000000E+00 -0.00000000000E+00 -0.10766168132E+02  0.10766168132E+02  0.00000000000E+00 0.  1.
          2    1    1    2  501    0 -0.10506985604E+02 -0.37020352050E+02  0.77771947779E+02  0.86771994755E+02  0.00000000000E+00 0. -1.
         -2    1    1    2    0  502  0.10506985604E+02  0.37020352050E+02  0.52817362697E+02  0.65349651985E+02  0.00000000000E+00 0.  1.
<mgrwt>
<rscale>  2 0.38482505E+02</rscale>
<asrwt>0</asrwt>
<pdfrwt beam="1">  1       21 0.21746995E-01 0.38482505E+02</pdfrwt>
<pdfrwt beam="2">  1       21 0.16563337E-02 0.38482505E+02</pdfrwt>
<totfact> 0.27398153E+07</totfact>
</mgrwt>
</event>
<event>
 4    1  0.7424968E+004  0.3095246E+02  0.7546771E-02  0.1587793E+00
         21   -1    0    0  503  502  0.00000000000E+00  0.00000000000E+00  0.23287069431E+03  0.23287069431E+03  0.00000000000E+00 0. -1.
         21   -1    0    0  501  503 -0.00000000000E+00 -0.00000000000E+00 -0.44793219670E+01  0.44793219670E+01  0.00000000000E+00 0. -1.
          2    1    1    2  501    0  0.30893774550E+02  0.19050836300E+01  0.14808230128E+03  0.15128259187E+03  0.00000000000E+00 0.  1.
         -2    1    1    2    0  502 -0.30893774550E+02 -0.19050836300E+01  0.80309071063E+02  0.86067424410E+02  0.00000000000E+00 0. -1.
<mgrwt>
<rscale>  2 0.30952458E+02</rscale>
<asrwt>0</asrwt>
<pdfrwt beam="1">  1       21 0.35826251E-01 0.30952458E+02</pdfrwt>
<pdfrwt beam="2">  1       21 0.68912664E-03 0.30952458E+02</pdfrwt>
<totfact> 0.40139083E+07</totfact>
</mgrwt>
</event>
<event>
 4    1  0.7424968E+004  0.6905440E+02  0.7546771E-02  0.1363338E+00
         21   -1    0    0  503  502  0.00000000000E+00  0.00000000000E+00  0.29715760470E+02  0.29715760470E+02  0.00000000000E+00 0.  1.
         21   -1    0    0  501  503 -0.00000000000E+00 -0.00000000000E+00 -0.24114859770E+03  0.24114859770E+03  0.00000000000E+00 0.  1.
          1    1    1    2  501    0 -0.31916821017E+02  0.61235831588E+02 -0.18405156021E+03  0.19657946828E+03  0.00000000000E+00 0.  1.
         -1    1    1    2    0  502  0.31916821017E+02 -0.61235831588E+02 -0.27381277015E+02  0.74284889884E+02  0.00000000000E+00 0. -1.
<mgrwt>
<rscale>  2 0.69054403E+02</rscale>
<asrwt>0</asrwt>
<pdfrwt beam="1">  1       21 0.45716556E-02 0.69054403E+02</pdfrwt>
<pdfrwt beam="2">  1       21 0.37099783E-01 0.69054403E+02</pdfrwt>
<totfact> 0.21298960E+06</totfact>
</mgrwt>
</event>
<event>
 4    1  0.7424968E+004  0.2889331E+02  0.7546771E-02  0.1610654E+00
         21   -1    0    0  503  502  0.00000000000E+00  0.00000000000E+00  0.18427773079E+04  0.18427773079E+04  0.00000000000E+00 0. -1.
         21   -1    0    0  501  503 -0.00000000000E+00 -0.00000000000E+00 -0.46024341907E+00  0.46024341907E+00  0.00000000000E+00 0. -1.
          3    1    1    2  501    0 -0.10958028681E+01 -0.28872525654E+02  0.10365807663E+04  0.10369833695E+04  0.00000000000E+00 0. -1.
         -3    1    1    2    0  502  0.10958028681E+01  0.28872525654E+02  0.80573629825E+03  0.80625418190E+03  0.00000000000E+00 0.  1.
<mgrwt>
<rscale>  2 0.28893313E+02</rscale>
<asrwt>0</asrwt>
<pdfrwt beam="1">  1       21 0.28349829E+00 0.28893313E+02</pdfrwt>
<pdfrwt beam="2">  1       21 0.70808155E-04 0.28893313E+02</pdfrwt>
<totfact> 0.96080164E+06</totfact>
</mgrwt>
</event>
<event>
 4    1  0.7424968E+004  0.2940177E+02  0.7546771E-02  0.1604797E+00
         21   -1    0    0  501  502  0.00000000000E+00  0.00000000000E+00  0.30454321085E+02  0.30454321085E+02  0.00000000000E+00 0. -1.
         21   -1    0    0  502  503 -0.00000000000E+00 -0.00000000000E+00 -0.37582680007E+02  0.37582680007E+02  0.00000000000E+00 0. -1.
          1    1    1    2  501    0 -0.28488652011E+02 -0.72705500658E+01 -0.20392712684E+02  0.35781656226E+02  0.00000000000E+00 0. -1.
         -1    1    1    2    0  503  0.28488652011E+02  0.72705500658E+01  0.13264353762E+02  0.32255344866E+02  0.00000000000E+00 0.  1.
<mgrwt>
<rscale>  2 0.29401772E+02</rscale>
<asrwt>0</asrwt>
<pdfrwt beam="1">  1       21 0.46852802E-02 0.29401772E+02</pdfrwt>
<pdfrwt beam="2">  1       21 0.57819508E-02 0.29401772E+02</pdfrwt>
<totfact> 0.47830908E+07</totfact>
</mgrwt>
</event>
<event>
 4    1  0.7424968E+004  0.2012035E+02  0.7546771E-02  0.1742945E+00
         21   -1    0    0  503  502  0.00000000000E+00  0.00000000000E+00  0.65435578652E+02  0.65435578652E+02  0.00000000000E+00 0. -1.
         21   -1    0    0  501  503 -0.00000000000E+00 -0.00000000000E+00 -0.66671680676E+01  0.66671680676E+01  0.00000000000E+00 0. -1.
          3    1    1    2  501    0  0.17387433737E+02  0.10124514399E+02  0.39062409410E+02  0.43939736830E+02  0.00000000000E+00 0. -1.
         -3    1    1    2    0  502 -0.17387433737E+02 -0.10124514399E+02  0.19706001174E+02  0.28163009890E+02  0.00000000000E+00 0.  1.
<mgrwt>
<rscale>  2 0.20120354E+02</rscale>
<asrwt>0</asrwt>
<pdfrwt beam="1">  1       21 0.10067012E-01 0.20120354E+02</pdfrwt>
<pdfrwt beam="2">  1       21 0.10257182E-02 0.20120354E+02</pdfrwt>
<totfact> 0.18224788E+08</totfact>
</mgrwt>
</event>
<event>
 4    1  0.7424968E+004  0.4487210E+02  0.7546771E-02  0.1475142E+00
         21   -1    0    0  503  502  0.00000000000E+00  0.00000000000E+00  0.34004950853E+02  0.34004950853E+02  0.00000000000E+00 0.  1.
         21   -1    0    0  501  503 -0.00000000000E+00 -0.00000000000E+00 -0.62738763712E+02  0.62738763712E+02  0.00000000000E+00 0.  1.
          1    1    1    2  501    0 -0.43419912640E+02 -0.11323261222E+02 -0.25835387165E+02  0.51778106264E+02  0.00000000000E+00 0.  1.
         -1    1    1    2    0  502  0.43419912640E+02  0.11323261222E+02 -0.28984256947E+01  0.44965608301E+02  0.00000000000E+00 0. -1.
<mgrwt>
<rscale>  2 0.44872097E+02</rscale>
<asrwt>0</asrwt>
<pdfrwt beam="1">  1       21 0.52315310E-02 0.44872097E+02</pdfrwt>
<pdfrwt beam="2">  1       21 0.96521173E-02 0.44872097E+02</pdfrwt>
<totfact> 0.18526260E+07</totfact>
</mgrwt>
</event>
<event>
 4    1  0.7424968E+004  0.3696074E+02  0.7546771E-02  0.1531848E+00
         21   -1    0    0  501  502  0.00000000000E+00  0.00000000000E+00  0.10326798395E+03  0.10326798395E+03  0.00000000000E+00 0.  1.
         21   -1    0    0  502  503 -0.00000000000E+00 -0.00000000000E+00 -0.25501899421E+02  0.25501899421E+02  0.00000000000E+00 0.  1.
          2    1    1    2  501    0  0.36723355566E+02 -0.41823220570E+01 -0.57830246111E+01  0.37410426828E+02  0.00000000000E+00 0. -1.
         -2    1    1    2    0  503 -0.36723355566E+02  0.41823220570E+01  0.83549109142E+02  0.91359456546E+02  0.00000000000E+00 0.  1.
<mgrwt>
<rscale>  2 0.36960745E+02</rscale>
<asrwt>0</asrwt>
<pdfrwt beam="1">  1       21 0.15887382E-01 0.36960745E+02</pdfrwt>
<pdfrwt beam="2">  1       21 0.39233692E-02 0.36960745E+02</pdfrwt>
<totfact> 0.12190739E+07</totfact>
</mgrwt>
</event>
<event>
 4    1  0.7424968E+004  0.3305508E+02  0.7546771E-02  0.1566583E+00
         21   -1    0    0  501  502  0.00000000000E+00  0.00000000000E+00  0.13715010105E+02  0.13715010105E+02  0.00000000000E+00 0. -1.
         21   -1    0    0  502  503 -0.00000000000E+00 -0.00000000000E+00 -0.87189386967E+02  0.87189386967E+02  0.00000000000E+00 0. -1.
          1    1    1    2  501    0  0.23145375979E+02  0.23599361693E+02 -0.21918271787E+02  0.39661680999E+02  0.00000000000E+00 0.  1.
         -1    1    1    2    0  503 -0.23145375979E+02 -0.23599361693E+02 -0.51556105075E+02  0.61242716073E+02  0.00000000000E+00 0. -1.
<mgrwt>
<rscale>  2 0.33055080E+02</rscale>
<asrwt>0</asrwt>
<pdfrwt beam="1">  1       21 0.21100015E-02 0.33055080E+02</pdfrwt>
<pdfrwt beam="2">  1       21 0.13413752E-01 0.33055080E+02</pdfrwt>
<totfact> 0.42626368E+07</totfact>
</mgrwt>
</event>
<event>
 4    1  0.7424968E+004  0.2378957E+02  0.7546771E-02  0.1679022E+00
         21   -1    0    0  503  502  0.00000000000E+00  0.00000000000E+00  0.31326398257E+02  0.31326398257E+02  0.00000000000E+00 0.  1.
         21   -1    0    0  501  503 -0.00000000000E+00 -0.00000000000E+00 -0.19097359446E+02  0.19097359446E+02  0.00000000000E+00 0.  1.
          1    1    1    2  501    0 -0.11273784218E+02  0.20948634755E+02  0.25559069397E+00  0.23790940194E+02  0.00000000000E+00 0. -1.
         -1    1    1    2    0  502  0.11273784218E+02 -0.20948634755E+02  0.11973448117E+02  0.26632817510E+02  0.00000000000E+00 0.  1.
<mgrwt>
<rscale>  2 0.23789567E+02</rscale>
<asrwt>0</asrwt>
<pdfrwt beam="1">  1       21 0.48194459E-02 0.23789567E+02</pdfrwt>
<pdfrwt beam="2">  1       21 0.29380553E-02 0.23789567E+02</pdfrwt>
<totfact> 0.12679978E+08</totfact>
</mgrwt>
</event>
<event>
 4    1  0.7424968E+004  0.2174893E+02  0.7546771E-02  0.1712631E+00
         21   -1    0    0  503  502  0.00000000000E+00  0.00000000000E+00  0.83916950718E+00  0.83916950718E+00  0.00000000000E+00 0. -1.
         21   -1    0    0  501  503 -0.00000000000E+00 -0.00000000000E+00 -0.56392055302E+03  0.56392055302E+03  0.00000000000E+00 0. -1.
          5    1    1    2  501    0  0.21090790564E+02  0.53098510265E+01 -0.28747458641E+03  0.28829612171E+03  0.00000000000E+00 0.  1.
         -5    1    1    2    0  502 -0.21090790564E+02 -0.53098510265E+01 -0.27560679711E+03  0.27646360082E+03  0.00000000000E+00 0. -1.
<mgrwt>
<rscale>  2 0.21748930E+02</rscale>
<asrwt>0</asrwt>
<pdfrwt beam="1">  1       21 0.12910288E-03 0.21748930E+02</pdfrwt>
<pdfrwt beam="2">  1       21 0.86757090E-01 0.21748930E+02</pdfrwt>
<totfact> 0.73993724E+07</totfact>
</mgrwt>
</event>
<event>
 4    1  0.7424968E+004  0.2509992E+02  0.7546771E-02  0.1659571E+00
         21   -1    0    0  503  502  0.00000000000E+00  0.00000000000E+00  0.14544505725E+02  0.14544505725E+02  0.00000000000E+00 0. -1.
         21   -1    0    0  501  503 -0.00000000000E+00 -0.00000000000E+00 -0.53223354451E+02  0.53223354451E+02  0.00000000000E+00 0. -1.
          2    1    1    2  501    0 -0.25084833892E+02  0.87001873534E+00 -0.47200929122E+01  0.25539872769E+02  0.00000000000E+00 0. -1.
         -2    1    1    2    0  502  0.25084833892E+02 -0.87001873534E+00 -0.33958755815E+02  0.42227987407E+02  0.00000000000E+00 0.  1.
<mgrwt>
<rscale>  2 0.25099917E+02</rscale>
<asrwt>0</asrwt>
<pdfrwt beam="1">  1       21 0.22376162E-02 0.25099917E+02</pdfrwt>
<pdfrwt beam="2">  1       21 0.81882085E-02 0.25099917E+02</pdfrwt>
<totfact> 0.83446665E+07</totfact>
</mgrwt>
</event>
<event>
 4    1  0.7424968E+004  0.4199651E+02  0.7546771E-02  0.1494013E+00
         21   -1    0    0  501  502  0.00000000000E+00  0.00000000000E+00  0.61793983917E+02  0.61793983917E+02  0.00000000000E+00 0. -1.
         21   -1    0    0  502  503 -0.00000000000E+00 -0.00000000000E+00 -0.35693478698E+02  0.35693478698E+02  0.00000000000E+00 0. -1.
          3    1    1    2  501    0 -0.11908142913E+02  0.40272854940E+02  0.34869044369E+02  0.54585318245E+02  0.00000000000E+00 0. -1.
         -3    1    1    2    0  503  0.11908142913E+02 -0.40272854940E+02 -0.87685391502E+01  0.42902144370E+02  0.00000000000E+00 0.  1.
<mgrwt>
<rscale>  2 0.41996508E+02</rscale>
<asrwt>0</asrwt>
<pdfrwt beam="1">  1       21 0.95067667E-02 0.41996508E+02</pdfrwt>
<pdfrwt beam="2">  1       21 0.54913044E-02 0.41996508E+02</pdfrwt>
<totfact> 0.17388371E+07</totfact>
</mgrwt>
</event>
<event>
 4    1  0.7424968E+004  0.2123572E+02  0.7546771E-02  0.1721815E+00
         21   -1    0    0  501  502  0.00000000000E+00  0.00000000000E+00  0.90842542983E+01  0.90842542983E+01  0.00000000000E+00 0. -1.
         21   -1    0    0  502  503 -0.00000000000E+00 -0.00000000000E+00 -0.97111055671E+02  0.97111055671E+02  0.00000000000E+00 0. -1.
          4    1    1    2  501    0 -0.46521644535E+01 -0.20719872408E+02 -0.81136883987E+02  0.83869837784E+02  0.00000000000E+00 0.  1.
         -4    1    1    2    0  503  0.46521644535E+01  0.20719872408E+02 -0.68899173852E+01  0.22325472185E+02  0.00000000000E+00 0. -1.
<mgrwt>
<rscale>  2 0.21235719E+02</rscale>
<asrwt>0</asrwt>
<pdfrwt beam="1">  1       21 0.13975776E-02 0.21235719E+02</pdfrwt>
<pdfrwt beam="2">  1       21 0.14940162E-01 0.21235719E+02</pdfrwt>
<totfact> 0.60142817E+07</totfact>
</mgrwt>
</event>
<event>
 4    1  0.7424968E+004  0.3077296E+02  0.7546771E-02  0.1589699E+00
         21   -1    0    0  503  502  0.00000000000E+00  0.00000000000E+00  0.31499584630E+02  0.31499584630E+02  0.00000000000E+00 0.  1.
         21   -1    0    0  501  503 -0.00000000000E+00 -0.00000000000E+00 -0.55688850557E+02  0.55688850557E+02  0.00000000000E+00 0.  1.
          1    1    1    2  501    0  0.89417327899E+01  0.29445206827E+02 -0.41666800500E+02  0.51798620196E+02  0.00000000000E+00 0.  1.
         -1    1    1    2    0  502 -0.89417327899E+01 -0.29445206827E+02  0.17477534572E+02  0.35389814991E+02  0.00000000000E+00 0. -1.
<mgrwt>
<rscale>  2 0.30772956E+02</rscale>
<asrwt>0</asrwt>
<pdfrwt beam="1">  1       21 0.48460900E-02 0.30772956E+02</pdfrwt>
<pdfrwt beam="2">  1       21 0.85675154E-02 0.30772956E+02</pdfrwt>
<totfact> 0.24020931E+07</totfact>
</mgrwt>
</event>
<event>
 4    1  0.7424968E+004  0.2291608E+02  0.7546771E-02  0.1692874E+00
         21   -1    0    0  501  502  0.00000000000E+00  0.00000000000E+00  0.10393325298E+02  0.10393325298E+02  0.00000000000E+00 0.  1.
         21   -1    0    0  502  503 -0.00000000000E+00 -0.00000000000E+00 -0.51363236207E+02  0.51363236207E+02  0.00000000000E+00 0.  1.
          5    1    1    2  501    0  0.25078928198E+01  0.22778433835E+02 -0.16545685324E+02  0.28264930165E+02  0.00000000000E+00 0. -1.
         -5    1    1    2    0  503 -0.25078928198E+01 -0.22778433835E+02 -0.24424225584E+02  0.33491631340E+02  0.00000000000E+00 0.  1.
<mgrwt>
<rscale>  2 0.22916077E+02</rscale>
<asrwt>0</asrwt>
<pdfrwt beam="1">  1       21 0.15989731E-02 0.22916077E+02</pdfrwt>
<pdfrwt beam="2">  1       21 0.79020364E-02 0.22916077E+02</pdfrwt>
<totfact> 0.14433447E+08</totfact>
</mgrwt>
</event>
<event>
 4    1  0.7424968E+004  0.3093456E+02  0.7546771E-02  0.1587982E+00
         21   -1    0    0  503  502  0.00000000000E+00  0.00000000000E+00  0.53562853594E+01  0.53562853594E+01  0.00000000000E+00 0. -1.
         21   -1    0    0  501  503 -0.00000000000E+00 -0.00000000000E+00 -0.17935904091E+03  0.17935904091E+03  0.00000000000E+00 0. -1.
          3    1    1    2  501    0  0.97020427600E+01  0.29373749091E+02 -0.81230017471E+02  0.86921013039E+02  0.00000000000E+00 0.  1.
         -3    1    1    2    0  502 -0.97020427600E+01 -0.29373749091E+02 -0.92772738076E+02  0.97794313226E+02  0.00000000000E+00 0. -1.
<mgrwt>
<rscale>  2 0.30934556E+02</rscale>
<asrwt>0</asrwt>
<pdfrwt beam="1">  1       21 0.82404402E-03 0.30934556E+02</pdfrwt>
<pdfrwt beam="2">  1       21 0.27593695E-01 0.30934556E+02</pdfrwt>
<totfact> 0.49729554E+07</totfact>
</mgrwt>
</event>
<event>
 4    1  0.7424968E+004  0.2170737E+02  0.7546771E-02  0.1713363E+00
         21   -1    0    0  503  502  0.00000000000E+00  0.00000000000E+00  0.53489335393E+02  0.53489335393E+02  0.00000000000E+00 0.  1.
         21   -1    0    0  501  503 -0.00000000000E+00 -0.00000000000E+00 -0.88266152410E+01  0.88266152410E+01  0.00000000000E+00 0.  1.
          3    1    1    2  501    0 -0.21572934284E+02 -0.24121101910E+01  0.23706781231E+02  0.32143759045E+02  0.00000000000E+00 0. -1.
         -3    1    1    2    0  502  0.21572934284E+02  0.24121101910E+01  0.20955938920E+02  0.30172191588E+02  0.00000000000E+00 0.  1.
<mgrwt>
<rscale>  2 0.21707367E+02</rscale>
<asrwt>0</asrwt>
<pdfrwt beam="1">  1       21 0.82291283E-02 0.21707367E+02</pdfrwt>
<pdfrwt beam="2">  1       21 0.13579408E-02 0.21707367E+02</pdfrwt>
<totfact> 0.17027833E+08</totfact>
</mgrwt>
</event>
<event>
 4    1  0.7424968E+004  0.2134993E+02  0.7546771E-02  0.1719743E+00
         21   -1    0    0  503  502  0.00000000000E+00  0.00000000000E+00  0.97417250789E+01  0.97417250789E+01  0.00000000000E+00 0.  1.
         21   -1    0    0  501  503 -0.00000000000E+00 -0.00000000000E+00 -0.47457896263E+02  0.47457896263E+02  0.00000000000E+00 0.  1.
          5    1    1    2  501    0 -0.11068558251E+02  0.18256685541E+02 -0.22249822282E+02  0.30836247182E+02  0.00000000000E+00 0.  1.
         -5    1    1    2    0  502  0.11068558251E+02 -0.18256685541E+02 -0.15466348902E+02  0.26363374160E+02  0.00000000000E+00 0. -1.
<mgrwt>
<rscale>  2 0.21349931E+02</rscale>
<asrwt>0</asrwt>
<pdfrwt beam="1">  1       21 0.14987269E-02 0.21349931E+02</pdfrwt>
<pdfrwt beam="2">  1       21 0.73012151E-02 0.21349931E+02</pdfrwt>
<totfact> 0.17719149E+08</totfact>
</mgrwt>
</event>
<event>
 4    1  0.7424968E+004  0.2226356E+02  0.7546771E-02  0.1703733E+00
         21   -1    0    0  503  502  0.00000000000E+00  0.00000000000E+00  0.71208631364E+02  0.71208631364E+02  0.00000000000E+00 0.  1.
         21   -1    0    0  501  503 -0.00000000000E+00 -0.00000000000E+00 -0.76919985206E+01  0.76919985206E+01  0.00000000000E+00 0.  1.
          1    1    1    2  501    0 -0.12036590881E+02 -0.18729295845E+02  0.43921885746E+02  0.49242238885E+02  0.00000000000E+00 0.  1.
         -1    1    1    2    0  502  0.12036590881E+02  0.18729295845E+02  0.19594747098E+02  0.29658391000E+02  0.00000000000E+00 0. -1.
<mgrwt>
<rscale>  2 0.22263559E+02</rscale>
<asrwt>0</asrwt>
<pdfrwt beam="1">  1       21 0.10955174E-01 0.22263559E+02</pdfrwt>
<pdfrwt beam="2">  1       21 0.11833844E-02 0.22263559E+02</pdfrwt>
<totfact> 0.13188405E+08</totfact>
</mgrwt>
</event>
<event>
 4    1  0.7424968E+004  0.2165601E+02  0.7546771E-02  0.1714270E+00
         21   -1    0    0  501  502  0.00000000000E+00  0.00000000000E+00  0.42076969576E+01  0.42076969576E+01  0.00000000000E+00 0. -1.
         21   -1    0    0  502  503 -0.00000000000E+00 -0.00000000000E+00 -0.11354769144E+03  0.11354769144E+03  0.00000000000E+00 0. -1.
          2    1    1    2  501    0 -0.16058444736E+02  0.14529591712E+02 -0.46683189999E+02  0.51461664481E+02  0.00000000000E+00 0.  1.
         -2    1    1    2    0  503  0.16058444736E+02 -0.14529591712E+02 -0.62656804484E+02  0.66293723917E+02  0.00000000000E+00 0. -1.
<mgrwt>
<rscale>  2 0.21656008E+02</rscale>
<asrwt>0</asrwt>
<pdfrwt beam="1">  1       21 0.64733797E-03 0.21656008E+02</pdfrwt>
<pdfrwt beam="2">  1       21 0.17468876E-01 0.21656008E+02</pdfrwt>
<totfact> 0.14647430E+08</totfact>
</mgrwt>
</event>
<event>
 4    1  0.7424968E+004  0.2445294E+02  0.7546771E-02  0.1668986E+00
         21   -1    0    0  503  502  0.00000000000E+00  0.00000000000E+00  0.26488947811E+01  0.26488947811E+01  0.00000000000E+00 0.  1.
         21   -1    0    0  501  503 -0.00000000000E+00 -0.00000000000E+00 -0.23427600162E+03  0.23427600162E+03  0.00000000000E+00 0.  1.
          5    1    1    2  501    0 -0.19066729299E+02  0.15310328020E+02 -0.13843341535E+03  0.14057651581E+03  0.00000000000E+00 0.  1.
         -5    1    1    2    0  502  0.19066729299E+02 -0.15310328020E+02 -0.93193691484E+02  0.96348380592E+02  0.00000000000E+00 0. -1.
<mgrwt>
<rscale>  2 0.24452941E+02</rscale>
<asrwt>0</asrwt>
<pdfrwt beam="1">  1       21 0.40752207E-03 0.24452941E+02</pdfrwt>
<pdfrwt beam="2">  1       21 0.36042480E-01 0.24452941E+02</pdfrwt>
<totfact> 0.82224413E+07</totfact>
</mgrwt>
</event>
<event>
 4    1  0.7424968E+004  0.3475283E+02  0.7546771E-02  0.1550806E+00
         21   -1    0    0  501  502  0.00000000000E+00  0.00000000000E+00  0.23573047297E+03  0.23573047297E+03  0.00000000000E+00 0. -1.
         21   -1    0    0  502  503 -0.00000000000E+00 -0.00000000000E+00 -0.51503054242E+01  0.51503054242E+01  0.00000000000E+00 0. -1.
          3    1    1    2  501    0 -0.30741266234E+02  0.16209074260E+02  0.10659733145E+03  0.11211935877E+03  0.00000000000E+00 0. -1.
         -3    1    1    2    0  503  0.30741266234E+02 -0.16209074260E+02  0.12398283610E+03  0.12876141963E+03  0.00000000000E+00 0.  1.
<mgrwt>
<rscale>  2 0.34752835E+02</rscale>
<asrwt>0</asrwt>
<pdfrwt beam="1">  1       21 0.36266218E-01 0.34752835E+02</pdfrwt>
<pdfrwt beam="2">  1       21 0.79235486E-03 0.34752835E+02</pdfrwt>
<totfact> 0.32483882E+07</totfact>
</mgrwt>
</event>
<event>
 4    1  0.7424968E+004  0.2580341E+02  0.7546771E-02  0.1649723E+00
         21   -1    0    0  501  502  0.00000000000E+00  0.00000000000E+00  0.48190307768E+02  0.48190307768E+02  0.00000000000E+00 0.  1.
         21   -1    0    0  502  503 -0.00000000000E+00 -0.00000000000E+00 -0.20847483163E+02  0.20847483163E+02  0.00000000000E+00 0.  1.
          1    1    1    2  501    0 -0.25025329940E+02  0.62887868577E+01 -0.63752267134E+01  0.26579305754E+02  0.00000000000E+00 0.  1.
         -1    1    1    2    0  503  0.25025329940E+02 -0.62887868577E+01  0.33718051319E+02  0.42458485176E+02  0.00000000000E+00 0. -1.
<mgrwt>
<rscale>  2 0.25803410E+02</rscale>
<asrwt>0</asrwt>
<pdfrwt beam="1">  1       21 0.74138935E-02 0.25803410E+02</pdfrwt>
<pdfrwt beam="2">  1       21 0.32073051E-02 0.25803410E+02</pdfrwt>
<totfact> 0.56444007E+07</totfact>
</mgrwt>
</event>
<event>
 4    1  0.7424968E+004  0.3068569E+02  0.7546771E-02  0.1590631E+00
         21   -1    0    0  503  502  0.00000000000E+00  0.00000000000E+00  0.16068735575E+01  0.16068735575E+01  0.00000000000E+00 0.  1.
         21   -1    0    0  501  503 -0.00000000000E+00 -0.00000000000E+00 -0.63775275960E+03  0.63775275960E+03  0.00000000000E+00 0.  1.
          2    1    1    2  501    0 -0.30008142846E+02 -0.64127395172E+01 -0.40914762820E+03  0.41029671401E+03  0.00000000000E+00 0.  1.
         -2    1    1    2    0  502  0.30008142846E+02  0.64127395172E+01 -0.22699825784E+03  0.22906291915E+03  0.00000000000E+00 0. -1.
<mgrwt>
<rscale>  2 0.30685695E+02</rscale>
<asrwt>0</asrwt>
<pdfrwt beam="1">  1       21 0.24721075E-03 0.30685695E+02</pdfrwt>
<pdfrwt beam="2">  1       21 0.98116033E-01 0.30685695E+02</pdfrwt>
<totfact> 0.23752285E+07</totfact>
</mgrwt>
</event>
<event>
 4    1  0.7424968E+004  0.3602240E+02  0.7546771E-02  0.1539704E+00
         21   -1    0    0  501  502  0.00000000000E+00  0.00000000000E+00  0.20076579856E+03  0.20076579856E+03  0.00000000000E+00 0.  1.
         21   -1    0    0  502  503 -0.00000000000E+00 -0.00000000000E+00 -0.70546253703E+01  0.70546253703E+01  0.00000000000E+00 0.  1.
          2    1    1    2  501    0 -0.21476639590E+02 -0.28920016272E+02  0.66772142689E+02  0.75869179701E+02  0.00000000000E+00 0. -1.
         -2    1    1    2    0  503  0.21476639590E+02  0.28920016272E+02  0.12693903050E+03  0.13195124423E+03  0.00000000000E+00 0.  1.
<mgrwt>
<rscale>  2 0.36022401E+02</rscale>
<asrwt>0</asrwt>
<pdfrwt beam="1">  1       21 0.30887042E-01 0.36022401E+02</pdfrwt>
<pdfrwt beam="2">  1       21 0.10853271E-02 0.36022401E+02</pdfrwt>
<totfact> 0.27379155E+07</totfact>
</mgrwt>
</event>
<event>
 4    1  0.7424968E+004  0.2813256E+02  0.7546771E-02  0.1619698E+00
         21   -1    0    0  501  502  0.00000000000E+00  0.00000000000E+00  0.23719951825E+02  0.23719951825E+02  0.00000000000E+00 0.  1.
         21   -1    0    0  502  503 -0.00000000000E+00 -0.00000000000E+00 -0.43344285647E+02  0.43344285647E+02  0.00000000000E+00 0.  1.
          4    1    1    2  501    0 -0.10242370270E+02  0.26201812110E+02  0.62765696708E+01  0.28824233440E+02  0.00000000000E+00 0.  1.
         -4    1    1    2    0  503  0.10242370270E+02 -0.26201812110E+02 -0.25900903493E+02  0.38240004031E+02  0.00000000000E+00 0. -1.
<mgrwt>
<rscale>  2 0.28132563E+02</rscale>
<asrwt>0</asrwt>
<pdfrwt beam="1">  1       21 0.36492234E-02 0.28132563E+02</pdfrwt>
<pdfrwt beam="2">  1       21 0.66683516E-02 0.28132563E+02</pdfrwt>
<totfact> 0.55897457E+07</totfact>
</mgrwt>
</event>
<event>
 4    1  0.7424968E+004  0.2703527E+02  0.7546771E-02  0.1633380E+00
         21   -1    0    0  503  502  0.00000000000E+00  0.00000000000E+00  0.50327363742E+01  0.50327363742E+01  0.00000000000E+00 0. -1.
         21   -1    0    0  501  503 -0.00000000000E+00 -0.00000000000E+00 -0.20087084024E+03  0.20087084024E+03  0.00000000000E+00 0. -1.
          2    1    1    2  501    0 -0.26001598595E+02 -0.74042497521E+01 -0.43735067589E+02  0.51416555514E+02  0.00000000000E+00 0. -1.
         -2    1    1    2    0  502  0.26001598595E+02  0.74042497521E+01 -0.15210303628E+03  0.15448702110E+03  0.00000000000E+00 0.  1.
<mgrwt>
<rscale>  2 0.27035274E+02</rscale>
<asrwt>0</asrwt>
<pdfrwt beam="1">  1       21 0.77426729E-03 0.27035274E+02</pdfrwt>
<pdfrwt beam="2">  1       21 0.30903200E-01 0.27035274E+02</pdfrwt>
<totfact> 0.43131339E+07</totfact>
</mgrwt>
</event>
<event>
 4    1  0.7424968E+004  0.5570983E+02  0.7546771E-02  0.1416772E+00
         21   -1    0    0  501  502  0.00000000000E+00  0.00000000000E+00  0.13362284922E+03  0.13362284922E+03  0.00000000000E+00 0. -1.
         21   -1    0    0  502  503 -0.00000000000E+00 -0.00000000000E+00 -0.26490282874E+02  0.26490282874E+02  0.00000000000E+00 0. -1.
          2    1    1    2  501    0 -0.55010133672E+02 -0.88017110889E+01  0.25465568349E+02  0.61254225128E+02  0.00000000000E+00 0. -1.
         -2    1    1    2    0  503  0.55010133672E+02  0.88017110889E+01  0.81666997999E+02  0.98858906968E+02  0.00000000000E+00 0.  1.
<mgrwt>
<rscale>  2 0.55709828E+02</rscale>
<asrwt>0</asrwt>
<pdfrwt beam="1">  1       21 0.20557361E-01 0.55709828E+02</pdfrwt>
<pdfrwt beam="2">  1       21 0.40754282E-02 0.55709828E+02</pdfrwt>
<totfact> 0.76361370E+06</totfact>
</mgrwt>
</event>
<event>
 4    1  0.7424968E+004  0.2231874E+02  0.7546771E-02  0.1702797E+00
         21   -1    0    0  501  502  0.00000000000E+00  0.00000000000E+00  0.19239252395E+02  0.19239252395E+02  0.00000000000E+00 0. -1.
         21   -1    0    0  502  503 -0.00000000000E+00 -0.00000000000E+00 -0.26139977353E+02  0.26139977353E+02  0.00000000000E+00 0. -1.
          2    1    1    2  501    0 -0.16580706708E+02  0.14940089339E+02 -0.56641483485E+01  0.23026260681E+02  0.00000000000E+00 0.  1.
         -2    1    1    2    0  503  0.16580706708E+02 -0.14940089339E+02 -0.12365766089E+01  0.22352969067E+02  0.00000000000E+00 0. -1.
<mgrwt>
<rscale>  2 0.22318739E+02</rscale>
<asrwt>0</asrwt>
<pdfrwt beam="1">  1       21 0.29598850E-02 0.22318739E+02</pdfrwt>
<pdfrwt beam="2">  1       21 0.40215350E-02 0.22318739E+02</pdfrwt>
<totfact> 0.16373108E+08</totfact>
</mgrwt>
</event>
<event>
 4    1  0.7424968E+004  0.2865387E+02  0.7546771E-02  0.1613463E+00
         21   -1    0    0  501  502  0.00000000000E+00  0.00000000000E+00  0.28613518735E+02  0.28613518735E+02  0.00000000000E+00 0.  1.
         21   -1    0    0  502  503 -0.00000000000E+00 -0.00000000000E+00 -0.29885191136E+02  0.29885191136E+02  0.00000000000E+00 0.  1.
          1    1    1    2  501    0  0.26746522378E+02  0.10279497740E+02  0.52030039191E+01  0.29122427489E+02  0.00000000000E+00 0.  1.
         -1    1    1    2    0  503 -0.26746522378E+02 -0.10279497740E+02 -0.64746763196E+01  0.29376282381E+02  0.00000000000E+00 0. -1.
<mgrwt>
<rscale>  2 0.28653875E+02</rscale>
<asrwt>0</asrwt>
<pdfrwt beam="1">  1       21 0.44020798E-02 0.28653875E+02</pdfrwt>
<pdfrwt beam="2">  1       21 0.45977217E-02 0.28653875E+02</pdfrwt>
<totfact> 0.75931868E+07</totfact>
</mgrwt>
</event>
<event>
 4    1  0.7424968E+004  0.2136189E+02  0.7546771E-02  0.1719527E+00
         21   -1    0    0  501  502  0.00000000000E+00  0.00000000000E+00  0.39223071739E+03  0.39223071739E+03  0.00000000000E+00 0.  1.
         21   -1    0    0  502  503 -0.00000000000E+00 -0.00000000000E+00 -0.11767206991E+01  0.11767206991E+01  0.00000000000E+00 0.  1.
          1    1    1    2  501    0  0.49407041265E+01 -0.20782684226E+02  0.21643691701E+03  0.21748855043E+03  0.00000000000E+00 0. -1.
         -1    1    1    2    0  503 -0.49407041265E+01  0.20782684226E+02  0.17461707968E+03  0.17591888766E+03  0.00000000000E+00 0.  1.
<mgrwt>
<rscale>  2 0.21361894E+02</rscale>
<asrwt>0</asrwt>
<pdfrwt beam="1">  1       21 0.60343083E-01 0.21361894E+02</pdfrwt>
<pdfrwt beam="2">  1       21 0.18103427E-03 0.21361894E+02</pdfrwt>
<totfact> 0.95756154E+07</totfact>
</mgrwt>
</event>
<event>
 4    1  0.7424968E+004  0.2007913E+02  0.7546771E-02  0.1743759E+00
         21   -1    0    0  501  502  0.00000000000E+00  0.00000000000E+00  0.27977885951E+02  0.27977885951E+02  0.00000000000E+00 0.  1.
         21   -1    0    0  502  503 -0.00000000000E+00 -0.00000000000E+00 -0.15048622178E+02  0.15048622178E+02  0.00000000000E+00 0.  1.
          4    1    1    2  501    0 -0.63943189305E+01  0.19033764789E+02  0.10895164913E+02  0.22844608447E+02  0.00000000000E+00 0. -1.
         -4    1    1    2    0  503  0.63943189305E+01 -0.19033764789E+02  0.20340988605E+01  0.20181899682E+02  0.00000000000E+00 0.  1.
<mgrwt>
<rscale>  2 0.20079131E+02</rscale>
<asrwt>0</asrwt>
<pdfrwt beam="1">  1       21 0.43042901E-02 0.20079131E+02</pdfrwt>
<pdfrwt beam="2">  1       21 0.23151727E-02 0.20079131E+02</pdfrwt>
<totfact> 0.20787064E+08</totfact>
</mgrwt>
</event>
<event>
 4    1  0.7424968E+004  0.2140605E+02  0.7546771E-02  0.1718731E+00
         21   -1    0    0  501  502  0.00000000000E+00  0.00000000000E+00  0.18568439764E+03  0.18568439764E+03  0.00000000000E+00 0.  1.
         21   -1    0    0  502  503 -0.00000000000E+00 -0.00000000000E+00 -0.28101018231E+01  0.28101018231E+01  0.00000000000E+00 0.  1.
          5    1    1    2  501    0  0.20962166892E+02 -0.43366289938E+01  0.58540076712E+02  0.62331046624E+02  0.00000000000E+00 0.  1.
         -5    1    1    2    0  503 -0.20962166892E+02  0.43366289938E+01  0.12433421910E+03  0.12616345284E+03  0.00000000000E+00 0. -1.
<mgrwt>
<rscale>  2 0.21406046E+02</rscale>
<asrwt>0</asrwt>
<pdfrwt beam="1">  1       21 0.28566821E-01 0.21406046E+02</pdfrwt>
<pdfrwt beam="2">  1       21 0.43232350E-03 0.21406046E+02</pdfrwt>
<totfact> 0.11141396E+08</totfact>
</mgrwt>
</event>
<event>
 4    1  0.7424968E+004  0.2361221E+02  0.7546771E-02  0.1681774E+00
         21   -1    0    0  503  502  0.00000000000E+00  0.00000000000E+00  0.74410378394E+02  0.74410378394E+02  0.00000000000E+00 0. -1.
         21   -1    0    0  501  503 -0.00000000000E+00 -0.00000000000E+00 -0.80815666951E+01  0.80815666951E+01  0.00000000000E+00 0. -1.
          1    1    1    2  501    0  0.12482728442E+02  0.20042904004E+02  0.22030872713E+02  0.32293898228E+02  0.00000000000E+00 0. -1.
         -1    1    1    2    0  502 -0.12482728442E+02 -0.20042904004E+02  0.44297938986E+02  0.50198046861E+02  0.00000000000E+00 0.  1.
<mgrwt>
<rscale>  2 0.23612211E+02</rscale>
<asrwt>0</asrwt>
<pdfrwt beam="1">  1       21 0.11447750E-01 0.23612211E+02</pdfrwt>
<pdfrwt beam="2">  1       21 0.12433180E-02 0.23612211E+02</pdfrwt>
<totfact> 0.11572161E+08</totfact>
</mgrwt>
</event>
<event>
 4    1  0.7424968E+004  0.2351760E+02  0.7546771E-02  0.1683255E+00
         21   -1    0    0  503  502  0.00000000000E+00  0.00000000000E+00  0.14777919097E+02  0.14777919097E+02  0.00000000000E+00 0. -1.
         21   -1    0    0  501  503 -0.00000000000E+00 -0.00000000000E+00 -0.39756614169E+02  0.39756614169E+02  0.00000000000E+00 0. -1.
          3    1    1    2  501    0  0.22382211622E+02 -0.72190080288E+01 -0.58873107535E+01  0.24243306332E+02  0.00000000000E+00 0. -1.
         -3    1    1    2    0  502 -0.22382211622E+02  0.72190080288E+01 -0.19091384318E+02  0.30291226934E+02  0.00000000000E+00 0.  1.
<mgrwt>
<rscale>  2 0.23517599E+02</rscale>
<asrwt>0</asrwt>
<pdfrwt beam="1">  1       21 0.22735261E-02 0.23517599E+02</pdfrwt>
<pdfrwt beam="2">  1       21 0.61164021E-02 0.23517599E+02</pdfrwt>
<totfact> 0.12842423E+08</totfact>
</mgrwt>
</event>
<event>
 4    1  0.7424968E+004  0.2405016E+02  0.7546771E-02  0.1675032E+00
         21   -1    0    0  503  502  0.00000000000E+00  0.00000000000E+00  0.27953274794E+04  0.27953274794E+04  0.00000000000E+00 0. -1.
         21   -1    0    0  501  503 -0.00000000000E+00 -0.00000000000E+00 -0.22015894560E+00  0.22015894560E+00  0.00000000000E+00 0. -1.
          1    1    1    2  501    0  0.24047677737E+02 -0.34547297065E+00  0.10547940825E+04  0.10550682285E+04  0.00000000000E+00 0. -1.
         -1    1    1    2    0  502 -0.24047677737E+02  0.34547297065E+00  0.17403132379E+04  0.17404794098E+04  0.00000000000E+00 0.  1.
<mgrwt>
<rscale>  2 0.24050159E+02</rscale>
<asrwt>0</asrwt>
<pdfrwt beam="1">  1       21 0.43002196E+00 0.24050159E+02</pdfrwt>
<pdfrwt beam="2">  1       21 0.33872846E-04 0.24050159E+02</pdfrwt>
<totfact> 0.47420501E+06</totfact>
</mgrwt>
</event>
<event>
 4    1  0.7424968E+004  0.2079366E+02  0.7546771E-02  0.1729991E+00
         21   -1    0    0  501  502  0.00000000000E+00  0.00000000000E+00  0.19549467360E+03  0.19549467360E+03  0.00000000000E+00 0.  1.
         21   -1    0    0  502  503 -0.00000000000E+00 -0.00000000000E+00 -0.22130775023E+01  0.22130775023E+01  0.00000000000E+00 0.  1.
          3    1    1    2  501    0  0.11458738129E+02 -0.17351478400E+02  0.99102890983E+02  0.10126084872E+03  0.00000000000E+00 0.  1.
         -3    1    1    2    0  503 -0.11458738129E+02  0.17351478400E+02  0.94178705114E+02  0.96446902382E+02  0.00000000000E+00 0. -1.
<mgrwt>
<rscale>  2 0.20793664E+02</rscale>
<asrwt>0</asrwt>
<pdfrwt beam="1">  1       21 0.30076090E-01 0.20793664E+02</pdfrwt>
<pdfrwt beam="2">  1       21 0.34047362E-03 0.20793664E+02</pdfrwt>
<totfact> 0.14272286E+08</totfact>
</mgrwt>
</event>
<event>
 4    1  0.7424968E+004  0.3277346E+02  0.7546771E-02  0.1569311E+00
         21   -1    0    0  501  502  0.00000000000E+00  0.00000000000E+00  0.14301036208E+02  0.14301036208E+02  0.00000000000E+00 0. -1.
         21   -1    0    0  502  503 -0.00000000000E+00 -0.00000000000E+00 -0.75363705437E+02  0.75363705437E+02  0.00000000000E+00 0. -1.
          3    1    1    2  501    0  0.24094207788E+02  0.22216405119E+02 -0.27911790860E+02  0.43048432891E+02  0.00000000000E+00 0.  1.
         -3    1    1    2    0  503 -0.24094207788E+02 -0.22216405119E+02 -0.33150878368E+02  0.46616308755E+02  0.00000000000E+00 0. -1.
<mgrwt>
<rscale>  2 0.32773457E+02</rscale>
<asrwt>0</asrwt>
<pdfrwt beam="1">  1       21 0.22001594E-02 0.32773457E+02</pdfrwt>
<pdfrwt beam="2">  1       21 0.11594416E-01 0.32773457E+02</pdfrwt>
<totfact> 0.51098132E+07</totfact>
</mgrwt>
</event>
<event>
 4    1  0.7424968E+004  0.4589817E+02  0.7546771E-02  0.1468811E+00
         21   -1    0    0  503  502  0.00000000000E+00  0.00000000000E+00  0.13302195543E+02  0.13302195543E+02  0.00000000000E+00 0.  1.
         21   -1    0    0  501  503 -0.00000000000E+00 -0.00000000000E+00 -0.20124247567E+03  0.20124247567E+03  0.00000000000E+00 0.  1.
          1    1    1    2  501    0  0.26130840761E+02  0.37733549199E+02 -0.14348408433E+03  0.15064635418E+03  0.00000000000E+00 0. -1.
         -1    1    1    2    0  502 -0.26130840761E+02 -0.37733549199E+02 -0.44456195797E+02  0.63898317026E+02  0.00000000000E+00 0.  1.
<mgrwt>
<rscale>  2 0.45898165E+02</rscale>
<asrwt>0</asrwt>
<pdfrwt beam="1">  1       21 0.20464920E-02 0.45898165E+02</pdfrwt>
<pdfrwt beam="2">  1       21 0.30960376E-01 0.45898165E+02</pdfrwt>
<totfact> 0.10570912E+07</totfact>
</mgrwt>
</event>
<event>
 4    1  0.7424968E+004  0.2231070E+02  0.7546771E-02  0.1702933E+00
         21   -1    0    0  501  502  0.00000000000E+00  0.00000000000E+00  0.23099402727E+02  0.23099402727E+02  0.00000000000E+00 0. -1.
         21   -1    0    0  502  503 -0.00000000000E+00 -0.00000000000E+00 -0.25311915363E+02  0.25311915363E+02  0.00000000000E+00 0. -1.
          5    1    1    2  501    0  0.92273501564E+01  0.20313136617E+02 -0.10439238295E+02  0.24632198569E+02  0.00000000000E+00 0.  1.
         -5    1    1    2    0  503 -0.92273501564E+01 -0.20313136617E+02  0.82267256589E+01  0.23779119521E+02  0.00000000000E+00 0. -1.
<mgrwt>
<rscale>  2 0.22310704E+02</rscale>
<asrwt>0</asrwt>
<pdfrwt beam="1">  1       21 0.35537543E-02 0.22310704E+02</pdfrwt>
<pdfrwt beam="2">  1       21 0.38941408E-02 0.22310704E+02</pdfrwt>
<totfact> 0.12946910E+08</totfact>
</mgrwt>
</event>
<event>
 4    1  0.7424968E+004  0.2150501E+02  0.7546771E-02  0.1716956E+00
         21   -1    0    0  503  502  0.00000000000E+00  0.00000000000E+00  0.16970727203E+03  0.16970727203E+03  0.00000000000E+00 0.  1.
         21   -1    0    0  501  503 -0.00000000000E+00 -0.00000000000E+00 -0.27547838519E+01  0.27547838519E+01  0.00000000000E+00 0.  1.
          2    1    1    2  501    0  0.16527367229E+02  0.13759049295E+02  0.74521534507E+02  0.77562390437E+02  0.00000000000E+00 0. -1.
         -2    1    1    2    0  502 -0.16527367229E+02 -0.13759049295E+02  0.92430953668E+02  0.94899665442E+02  0.00000000000E+00 0.  1.
<mgrwt>
<rscale>  2 0.21505007E+02</rscale>
<asrwt>0</asrwt>
<pdfrwt beam="1">  1       21 0.26108803E-01 0.21505007E+02</pdfrwt>
<pdfrwt beam="2">  1       21 0.42381303E-03 0.21505007E+02</pdfrwt>
<totfact> 0.13498380E+08</totfact>
</mgrwt>
</event>
<event>
 4    1  0.7424968E+004  0.3323643E+02  0.7546771E-02  0.1564843E+00
         21   -1    0    0  503  502  0.00000000000E+00  0.00000000000E+00  0.65310252779E+02  0.65310252779E+02  0.00000000000E+00 0.  1.
         21   -1    0    0  501  503 -0.00000000000E+00 -0.00000000000E+00 -0.16915977347E+02  0.16915977347E+02  0.00000000000E+00 0.  1.
          2    1    1    2  501    0  0.13246938104E+02  0.30482435975E+02  0.23757231873E+02  0.40854208331E+02  0.00000000000E+00 0.  1.
         -2    1    1    2    0  502 -0.13246938104E+02 -0.30482435975E+02  0.24637043559E+02  0.41372021795E+02  0.00000000000E+00 0. -1.
<mgrwt>
<rscale>  2 0.33236430E+02</rscale>
<asrwt>0</asrwt>
<pdfrwt beam="1">  1       21 0.10047731E-01 0.33236430E+02</pdfrwt>
<pdfrwt beam="2">  1       21 0.26024581E-02 0.33236430E+02</pdfrwt>
<totfact> 0.50174246E+07</totfact>
</mgrwt>
</event>
<event>
 4    1  0.7424968E+004  0.2144317E+02  0.7546771E-02  0.1718064E+00
         21   -1    0    0  503  502  0.00000000000E+00  0.00000000000E+00  0.72816096269E+03  0.72816096269E+03  0.00000000000E+00 0.  1.
         21   -1    0    0  501  503 -0.00000000000E+00 -0.00000000000E+00 -0.63609882800E+00  0.63609882800E+00  0.00000000000E+00 0.  1.
          5    1    1    2  501    0  0.16411768858E+02 -0.13800854367E+02  0.39485687807E+03  0.39543869802E+03  0.00000000000E+00 0. -1.
         -5    1    1    2    0  502 -0.16411768858E+02  0.13800854367E+02  0.33266798580E+03  0.33335836350E+03  0.00000000000E+00 0.  1.
<mgrwt>
<rscale>  2 0.21443175E+02</rscale>
<asrwt>0</asrwt>
<pdfrwt beam="1">  1       21 0.11202410E+00 0.21443175E+02</pdfrwt>
<pdfrwt beam="2">  1       21 0.97861941E-04 0.21443175E+02</pdfrwt>
<totfact> 0.62756207E+07</totfact>
</mgrwt>
</event>
<event>
 4    1  0.7424968E+004  0.2070845E+02  0.7546771E-02  0.1731596E+00
         21   -1    0    0  501  502  0.00000000000E+00  0.00000000000E+00  0.72433835677E+00  0.72433835677E+00  0.00000000000E+00 0. -1.
         21   -1    0    0  502  503 -0.00000000000E+00 -0.00000000000E+00 -0.75241773487E+03  0.75241773487E+03  0.00000000000E+00 0. -1.
          1    1    1    2  501    0  0.11041209128E+01  0.20678998705E+02 -0.20199288330E+03  0.20305163130E+03  0.00000000000E+00 0.  1.
         -1    1    1    2    0  503 -0.11041209128E+01 -0.20678998705E+02 -0.54970051322E+03  0.55009044193E+03  0.00000000000E+00 0. -1.
<mgrwt>
<rscale>  2 0.20708454E+02</rscale>
<asrwt>0</asrwt>
<pdfrwt beam="1">  1       21 0.11143701E-03 0.20708454E+02</pdfrwt>
<pdfrwt beam="2">  1       21 0.11575622E+00 0.20708454E+02</pdfrwt>
<totfact> 0.48122011E+07</totfact>
</mgrwt>
</event>
<event>
 4    1  0.7424968E+004  0.2455239E+02  0.7546771E-02  0.1667516E+00
         21   -1    0    0  503  502  0.00000000000E+00  0.00000000000E+00  0.82535718049E+00  0.82535718049E+00  0.00000000000E+00 0. -1.
         21   -1    0    0  501  503 -0.00000000000E+00 -0.00000000000E+00 -0.75053215643E+03  0.75053215643E+03  0.00000000000E+00 0. -1.
          2    1    1    2  501    0  0.23484021951E+02 -0.71638286754E+01 -0.43642117161E+03  0.43711126587E+03  0.00000000000E+00 0.  1.
         -2    1    1    2    0  502 -0.23484021951E+02  0.71638286754E+01 -0.31328562765E+03  0.31424624774E+03  0.00000000000E+00 0. -1.
<mgrwt>
<rscale>  2 0.24552387E+02</rscale>
<asrwt>0</asrwt>
<pdfrwt beam="1">  1       21 0.12697760E-03 0.24552387E+02</pdfrwt>
<pdfrwt beam="2">  1       21 0.11546687E+00 0.24552387E+02</pdfrwt>
<totfact> 0.41640321E+07</totfact>
</mgrwt>
</event>
<event>
 4    1  0.7424968E+004  0.3054270E+02  0.7546771E-02  0.1592166E+00
         21   -1    0    0  503  502  0.00000000000E+00  0.00000000000E+00  0.35990799056E+01  0.35990799056E+01  0.00000000000E+00 0. -1.
         21   -1    0    0  501  503 -0.00000000000E+00 -0.00000000000E+00 -0.31138499635E+03  0.31138499635E+03  0.00000000000E+00 0. -1.
          1    1    1    2  501    0  0.26145790949E+02 -0.15787782189E+02 -0.21837095894E+03  0.22049655816E+03  0.00000000000E+00 0. -1.
         -1    1    1    2    0  502 -0.26145790949E+02  0.15787782189E+02 -0.89414957501E+02  0.94487518095E+02  0.00000000000E+00 0.  1.
<mgrwt>
<rscale>  2 0.30542699E+02</rscale>
<asrwt>0</asrwt>
<pdfrwt beam="1">  1       21 0.55370451E-03 0.30542699E+02</pdfrwt>
<pdfrwt beam="2">  1       21 0.47905392E-01 0.30542699E+02</pdfrwt>
<totfact> 0.31831981E+07</totfact>
</mgrwt>
</event>
<event>
 4    1  0.7424968E+004  0.4973541E+02  0.7546771E-02  0.1446774E+00
         21   -1    0    0  503  502  0.00000000000E+00  0.00000000000E+00  0.99344262466E+02  0.99344262466E+02  0.00000000000E+00 0.  1.
         21   -1    0    0  501  503 -0.00000000000E+00 -0.00000000000E+00 -0.28267394928E+02  0.28267394928E+02  0.00000000000E+00 0.  1.
          3    1    1    2  501    0  0.38010892781E+02 -0.32074647101E+02  0.13514028237E+02  0.51538722489E+02  0.00000000000E+00 0.  1.
         -3    1    1    2    0  502 -0.38010892781E+02  0.32074647101E+02  0.57562839301E+02  0.76072934905E+02  0.00000000000E+00 0. -1.
<mgrwt>
<rscale>  2 0.49735409E+02</rscale>
<asrwt>0</asrwt>
<pdfrwt beam="1">  1       21 0.15283733E-01 0.49735409E+02</pdfrwt>
<pdfrwt beam="2">  1       21 0.43488300E-02 0.49735409E+02</pdfrwt>
<totfact> 0.11503051E+07</totfact>
</mgrwt>
</event>
<event>
 4    1  0.7424968E+004  0.2654532E+02  0.7546771E-02  0.1639749E+00
         21   -1    0    0  503  502  0.00000000000E+00  0.00000000000E+00  0.45137399810E+03  0.45137399810E+03  0.00000000000E+00 0.  1.
         21   -1    0    0  501  503 -0.00000000000E+00 -0.00000000000E+00 -0.19404152081E+01  0.19404152081E+01  0.00000000000E+00 0.  1.
          5    1    1    2  501    0 -0.91502727620E+01 -0.24918396138E+02  0.32492529034E+03  0.32600781933E+03  0.00000000000E+00 0. -1.
         -5    1    1    2    0  502  0.91502727620E+01  0.24918396138E+02  0.12450829255E+03  0.12730659398E+03  0.00000000000E+00 0.  1.
<mgrwt>
<rscale>  2 0.26545319E+02</rscale>
<asrwt>0</asrwt>
<pdfrwt beam="1">  1       21 0.69442070E-01 0.26545319E+02</pdfrwt>
<pdfrwt beam="2">  1       21 0.29852578E-03 0.26545319E+02</pdfrwt>
<totfact> 0.36661467E+07</totfact>
</mgrwt>
</event>
<event>
 4    1  0.7424968E+004  0.2804463E+02  0.7546771E-02  0.1620766E+00
         21   -1    0    0  503  502  0.00000000000E+00  0.00000000000E+00  0.20225902213E+01  0.20225902213E+01  0.00000000000E+00 0.  1.
         21   -1    0    0  501  503 -0.00000000000E+00 -0.00000000000E+00 -0.41202688529E+03  0.41202688529E+03  0.00000000000E+00 0.  1.
          2    1    1    2  501    0 -0.67068546961E+00 -0.28036604663E+02 -0.25409396468E+03  0.25563693768E+03  0.00000000000E+00 0. -1.
         -2    1    1    2    0  502  0.67068546961E+00  0.28036604663E+02 -0.15591033039E+03  0.15841253783E+03  0.00000000000E+00 0.  1.
<mgrwt>
<rscale>  2 0.28044626E+02</rscale>
<asrwt>0</asrwt>
<pdfrwt beam="1">  1       21 0.31116745E-03 0.28044626E+02</pdfrwt>
<pdfrwt beam="2">  1       21 0.63388807E-01 0.28044626E+02</pdfrwt>
<totfact> 0.42040329E+07</totfact>
</mgrwt>
</event>
<event>
 4    1  0.7424968E+004  0.2233246E+02  0.7546771E-02  0.1702565E+00
         21   -1    0    0  503  502  0.00000000000E+00  0.00000000000E+00  0.10903864102E+02  0.10903864102E+02  0.00000000000E+00 0.  1.
         21   -1    0    0  501  503 -0.00000000000E+00 -0.00000000000E+00 -0.62627103595E+02  0.62627103595E+02  0.00000000000E+00 0.  1.
          5    1    1    2  501    0 -0.22280884310E+02  0.15169212465E+01 -0.44953174250E+02  0.50194887498E+02  0.00000000000E+00 0. -1.
         -5    1    1    2    0  502  0.22280884310E+02 -0.15169212465E+01 -0.67700652430E+01  0.23336080200E+02  0.00000000000E+00 0.  1.
<mgrwt>
<rscale>  2 0.22332462E+02</rscale>
<asrwt>0</asrwt>
<pdfrwt beam="1">  1       21 0.16775175E-02 0.22332462E+02</pdfrwt>
<pdfrwt beam="2">  1       21 0.96349392E-02 0.22332462E+02</pdfrwt>
<totfact> 0.96210692E+07</totfact>
</mgrwt>
</event>
<event>
 4    1  0.7424968E+004  0.2223711E+02  0.7546771E-02  0.1704183E+00
         21   -1    0    0  503  502  0.00000000000E+00  0.00000000000E+00  0.98962124648E+01  0.98962124648E+01  0.00000000000E+00 0.  1.
         21   -1    0    0  501  503 -0.00000000000E+00 -0.00000000000E+00 -0.54714923698E+02  0.54714923698E+02  0.00000000000E+00 0.  1.
          1    1    1    2  501    0  0.21984595600E+02 -0.33416468053E+01 -0.31925329592E+02  0.38906499670E+02  0.00000000000E+00 0.  1.
         -1    1    1    2    0  502 -0.21984595600E+02  0.33416468053E+01 -0.12893381641E+02  0.25704636492E+02  0.00000000000E+00 0. -1.
<mgrwt>
<rscale>  2 0.22237110E+02</rscale>
<asrwt>0</asrwt>
<pdfrwt beam="1">  1       21 0.15224942E-02 0.22237110E+02</pdfrwt>
<pdfrwt beam="2">  1       21 0.84176805E-02 0.22237110E+02</pdfrwt>
<totfact> 0.13899842E+08</totfact>
</mgrwt>
</event>
<event>
 4    1  0.7424968E+004  0.2881408E+02  0.7546771E-02  0.1611580E+00
         21   -1    0    0  501  502  0.00000000000E+00  0.00000000000E+00  0.69846605540E+02  0.69846605540E+02  0.00000000000E+00 0. -1.
         21   -1    0    0  502  503 -0.00000000000E+00 -0.00000000000E+00 -0.12381964457E+02  0.12381964457E+02  0.00000000000E+00 0. -1.
          3    1    1    2  501    0 -0.25666415907E+02  0.13095274520E+02  0.36954409672E+02  0.46860212488E+02  0.00000000000E+00 0.  1.
         -3    1    1    2    0  503  0.25666415907E+02 -0.13095274520E+02  0.20510231412E+02  0.35368357508E+02  0.00000000000E+00 0. -1.
<mgrwt>
<rscale>  2 0.28814079E+02</rscale>
<asrwt>0</asrwt>
<pdfrwt beam="1">  1       21 0.10745631E-01 0.28814079E+02</pdfrwt>
<pdfrwt beam="2">  1       21 0.19049176E-02 0.28814079E+02</pdfrwt>
<totfact> 0.70583741E+07</totfact>
</mgrwt>
</event>
<event>
 4    1  0.7424968E+004  0.2447833E+02  0.7546771E-02  0.1668610E+00
         21   -1    0    0  503  502  0.00000000000E+00  0.00000000000E+00  0.53482968160E+01  0.53482968160E+01  0.00000000000E+00 0.  1.
         21   -1    0    0  501  503 -0.00000000000E+00 -0.00000000000E+00 -0.12742498362E+03  0.12742498362E+03  0.00000000000E+00 0.  1.
          4    1    1    2  501    0 -0.85604277905E+01 -0.22932680416E+02 -0.84110741276E+02  0.87600260005E+02  0.00000000000E+00 0. -1.
         -4    1    1    2    0  502  0.85604277905E+01  0.22932680416E+02 -0.37965945529E+02  0.45173020432E+02  0.00000000000E+00 0.  1.
<mgrwt>
<rscale>  2 0.24478332E+02</rscale>
<asrwt>0</asrwt>
<pdfrwt beam="1">  1       21 0.82281485E-03 0.24478332E+02</pdfrwt>
<pdfrwt beam="2">  1       21 0.19603845E-01 0.24478332E+02</pdfrwt>
<totfact> 0.86863764E+07</totfact>
</mgrwt>
</event>
<event>
 4    1  0.7424968E+004  0.2356147E+02  0.7546771E-02  0.1682567E+00
         21   -1    0    0  503  502  0.00000000000E+00  0.00000000000E+00  0.73366895164E+02  0.73366895164E+02  0.00000000000E+00 0. -1.
         21   -1    0    0  501  503 -0.00000000000E+00 -0.00000000000E+00 -0.76798995609E+01  0.76798995609E+01  0.00000000000E+00 0. -1.
          1    1    1    2  501    0 -0.24656769509E-02 -0.23561471421E+02  0.37764026045E+02  0.44511398593E+02  0.00000000000E+00 0.  1.
         -1    1    1    2    0  502  0.24656769509E-02  0.23561471421E+02  0.27922969559E+02  0.36535396133E+02  0.00000000000E+00 0. -1.
<mgrwt>
<rscale>  2 0.23561472E+02</rscale>
<asrwt>0</asrwt>
<pdfrwt beam="1">  1       21 0.11287214E-01 0.23561472E+02</pdfrwt>
<pdfrwt beam="2">  1       21 0.11815231E-02 0.23561472E+02</pdfrwt>
<totfact> 0.12789483E+08</totfact>
</mgrwt>
</event>
<event>
 4    1  0.7424968E+004  0.2005714E+02  0.7546771E-02  0.1744194E+00
         21   -1    0    0  503  502  0.00000000000E+00  0.00000000000E+00  0.19187484657E+01  0.19187484657E+01  0.00000000000E+00 0.  1.
         21   -1    0    0  501  503 -0.00000000000E+00 -0.00000000000E+00 -0.48718630331E+03  0.48718630331E+03  0.00000000000E+00 0.  1.
          2    1    1    2  501    0  0.19262881294E+02 -0.55884090920E+01 -0.42720968722E+03  0.42768026113E+03  0.00000000000E+00 0. -1.
         -2    1    1    2    0  502 -0.19262881294E+02  0.55884090920E+01 -0.58057867630E+02  0.61424790645E+02  0.00000000000E+00 0.  1.
<mgrwt>
<rscale>  2 0.20057141E+02</rscale>
<asrwt>0</asrwt>
<pdfrwt beam="1">  1       21 0.29519192E-03 0.20057141E+02</pdfrwt>
<pdfrwt beam="2">  1       21 0.74951778E-01 0.20057141E+02</pdfrwt>
<totfact> 0.30000570E+07</totfact>
</mgrwt>
</event>
<event>
 4    1  0.7424968E+004  0.2012301E+02  0.7546771E-02  0.1742893E+00
         21   -1    0    0  501  502  0.00000000000E+00  0.00000000000E+00  0.10850612779E+03  0.10850612779E+03  0.00000000000E+00 0.  1.
         21   -1    0    0  502  503 -0.00000000000E+00 -0.00000000000E+00 -0.39359474410E+01  0.39359474410E+01  0.00000000000E+00 0.  1.
          4    1    1    2  501    0  0.58262350196E+01  0.19261110390E+02  0.65085573080E+02  0.68125378612E+02  0.00000000000E+00 0. -1.
         -4    1    1    2    0  503 -0.58262350196E+01 -0.19261110390E+02  0.39484607268E+02  0.44316696617E+02  0.00000000000E+00 0.  1.
<mgrwt>
<rscale>  2 0.20123006E+02</rscale>
<asrwt>0</asrwt>
<pdfrwt beam="1">  1       21 0.16693248E-01 0.20123006E+02</pdfrwt>
<pdfrwt beam="2">  1       21 0.60553046E-03 0.20123006E+02</pdfrwt>
<totfact> 0.17090068E+08</totfact>
</mgrwt>
</event>
<event>
 4    1  0.7424968E+004  0.2559813E+02  0.7546771E-02  0.1652557E+00
         21   -1    0    0  501  502  0.00000000000E+00  0.00000000000E+00  0.95497321658E+01  0.95497321658E+01  0.00000000000E+00 0.  1.
         21   -1    0    0  502  503 -0.00000000000E+00 -0.00000000000E+00 -0.86057014017E+02  0.86057014017E+02  0.00000000000E+00 0.  1.
          2    1    1    2  501    0  0.25590404033E+02 -0.62871919051E+00 -0.16733171748E+02  0.30582071596E+02  0.00000000000E+00 0. -1.
         -2    1    1    2    0  503 -0.25590404033E+02  0.62871919051E+00 -0.59774110104E+02  0.65024674586E+02  0.00000000000E+00 0.  1.
<mgrwt>
<rscale>  2 0.25598126E+02</rscale>
<asrwt>0</asrwt>
<pdfrwt beam="1">  1       21 0.14691895E-02 0.25598126E+02</pdfrwt>
<pdfrwt beam="2">  1       21 0.13239541E-01 0.25598126E+02</pdfrwt>
<totfact> 0.71846699E+07</totfact>
</mgrwt>
</event>
<event>
 4    1  0.7424968E+004  0.2063819E+02  0.7546771E-02  0.1732927E+00
         21   -1    0    0  501  502  0.00000000000E+00  0.00000000000E+00  0.86188462002E+01  0.86188462002E+01  0.00000000000E+00 0. -1.
         21   -1    0    0  502  503 -0.00000000000E+00 -0.00000000000E+00 -0.58188558335E+02  0.58188558335E+02  0.00000000000E+00 0. -1.
          3    1    1    2  501    0  0.20477003240E+02 -0.25743007528E+01 -0.37752613542E+02  0.43025510052E+02  0.00000000000E+00 0.  1.
         -3    1    1    2    0  503 -0.20477003240E+02  0.25743007528E+01 -0.11817098594E+02  0.23781894483E+02  0.00000000000E+00 0. -1.
<mgrwt>
<rscale>  2 0.20638185E+02</rscale>
<asrwt>0</asrwt>
<pdfrwt beam="1">  1       21 0.13259763E-02 0.20638185E+02</pdfrwt>
<pdfrwt beam="2">  1       21 0.89520863E-02 0.20638185E+02</pdfrwt>
<totfact> 0.15146044E+08</totfact>
</mgrwt>
</event>
<event>
 4    1  0.7424968E+004  0.2040957E+02  0.7546771E-02  0.1737304E+00
         21   -1    0    0  503  502  0.00000000000E+00  0.00000000000E+00  0.19729840654E+01  0.19729840654E+01  0.00000000000E+00 0.  1.
         21   -1    0    0  501  503 -0.00000000000E+00 -0.00000000000E+00 -0.31006535913E+03  0.31006535913E+03  0.00000000000E+00 0.  1.
          4    1    1    2  501    0 -0.19811751414E+02  0.49035566067E+01 -0.24217816662E+03  0.24303665309E+03  0.00000000000E+00 0.  1.
         -4    1    1    2    0  502  0.19811751414E+02 -0.49035566067E+01 -0.65914208444E+02  0.69001690098E+02  0.00000000000E+00 0. -1.
<mgrwt>
<rscale>  2 0.20409565E+02</rscale>
<asrwt>0</asrwt>
<pdfrwt beam="1">  1       21 0.30353615E-03 0.20409565E+02</pdfrwt>
<pdfrwt beam="2">  1       21 0.47702341E-01 0.20409565E+02</pdfrwt>
<totfact> 0.71048035E+07</totfact>
</mgrwt>
</event>
<event>
 4    1  0.7424968E+004  0.2480556E+02  0.7546771E-02  0.1663810E+00
         21   -1    0    0  503  502  0.00000000000E+00  0.00000000000E+00  0.13765804454E+01  0.13765804454E+01  0.00000000000E+00 0. -1.
         21   -1    0    0  501  503 -0.00000000000E+00 -0.00000000000E+00 -0.48965357393E+03  0.48965357393E+03  0.00000000000E+00 0. -1.
          4    1    1    2  501    0 -0.21304642612E+02 -0.12705436841E+02 -0.17166672673E+03  0.17344964972E+03  0.00000000000E+00 0. -1.
         -4    1    1    2    0  502  0.21304642612E+02  0.12705436841E+02 -0.31661026676E+03  0.31758050466E+03  0.00000000000E+00 0.  1.
<mgrwt>
<rscale>  2 0.24805562E+02</rscale>
<asrwt>0</asrwt>
<pdfrwt beam="1">  1       21 0.21178156E-03 0.24805562E+02</pdfrwt>
<pdfrwt beam="2">  1       21 0.75331337E-01 0.24805562E+02</pdfrwt>
<totfact> 0.50356132E+07</totfact>
</mgrwt>
</event>
<event>
 4    1  0.7424968E+004  0.6098180E+02  0.7546771E-02  0.1393757E+00
         21   -1    0    0  503  502  0.00000000000E+00  0.00000000000E+00  0.33821541921E+02  0.33821541921E+02  0.00000000000E+00 0. -1.
         21   -1    0    0  501  503 -0.00000000000E+00 -0.00000000000E+00 -0.12366933683E+03  0.12366933683E+03  0.00000000000E+00 0. -1.
          3    1    1    2  501    0 -0.56328363214E+02  0.23364413788E+02 -0.18699029602E+02  0.63784277389E+02  0.00000000000E+00 0. -1.
         -3    1    1    2    0  502  0.56328363214E+02 -0.23364413788E+02 -0.71148765303E+02  0.93706601358E+02  0.00000000000E+00 0.  1.
<mgrwt>
<rscale>  2 0.60981803E+02</rscale>
<asrwt>0</asrwt>
<pdfrwt beam="1">  1       21 0.52033141E-02 0.60981803E+02</pdfrwt>
<pdfrwt beam="2">  1       21 0.19026052E-01 0.60981803E+02</pdfrwt>
<totfact> 0.59375088E+06</totfact>
</mgrwt>
</event>
<event>
 4    1  0.7424968E+004  0.3996536E+02  0.7546771E-02  0.1508467E+00
         21   -1    0    0  503  502  0.00000000000E+00  0.00000000000E+00  0.16675084954E+01  0.16675084954E+01  0.00000000000E+00 0. -1.
         21   -1    0    0  501  503 -0.00000000000E+00 -0.00000000000E+00 -0.95879866181E+03  0.95879866181E+03  0.00000000000E+00 0. -1.
          1    1    1    2  501    0 -0.36928235358E+02 -0.15281863448E+02 -0.49363838521E+03  0.49525355654E+03  0.00000000000E+00 0.  1.
         -1    1    1    2    0  502  0.36928235358E+02  0.15281863448E+02 -0.46349276811E+03  0.46521261377E+03  0.00000000000E+00 0. -1.
<mgrwt>
<rscale>  2 0.39965359E+02</rscale>
<asrwt>0</asrwt>
<pdfrwt beam="1">  1       21 0.25653983E-03 0.39965359E+02</pdfrwt>
<pdfrwt beam="2">  1       21 0.14750745E+00 0.39965359E+02</pdfrwt>
<totfact> 0.90457034E+06</totfact>
</mgrwt>
</event>
<event>
 4    1  0.7424968E+004  0.2017603E+02  0.7546771E-02  0.1741850E+00
         21   -1    0    0  501  502  0.00000000000E+00  0.00000000000E+00  0.18578015581E+02  0.18578015581E+02  0.00000000000E+00 0.  1.
         21   -1    0    0  502  503 -0.00000000000E+00 -0.00000000000E+00 -0.29924431738E+02  0.29924431738E+02  0.00000000000E+00 0.  1.
          5    1    1    2  501    0 -0.75854692660E+01  0.18695802260E+02 -0.18222411615E+02  0.27186920591E+02  0.00000000000E+00 0. -1.
         -5    1    1    2    0  503  0.75854692660E+01 -0.18695802260E+02  0.68759954592E+01  0.21315526728E+02  0.00000000000E+00 0.  1.
<mgrwt>
<rscale>  2 0.20176034E+02</rscale>
<asrwt>0</asrwt>
<pdfrwt beam="1">  1       21 0.28581563E-02 0.20176034E+02</pdfrwt>
<pdfrwt beam="2">  1       21 0.46037587E-02 0.20176034E+02</pdfrwt>
<totfact> 0.13538450E+08</totfact>
</mgrwt>
</event>
<event>
 4    1  0.7424968E+004  0.2843973E+02  0.7546771E-02  0.1616005E+00
         21   -1    0    0  501  502  0.00000000000E+00  0.00000000000E+00  0.32262710980E+02  0.32262710980E+02  0.00000000000E+00 0.  1.
         21   -1    0    0  502  503 -0.00000000000E+00 -0.00000000000E+00 -0.25452298522E+02  0.25452298522E+02  0.00000000000E+00 0.  1.
          2    1    1    2  501    0  0.20654166614E+02 -0.19550542572E+02 -0.13260581403E+00  0.28440040396E+02  0.00000000000E+00 0.  1.
         -2    1    1    2    0  503 -0.20654166614E+02  0.19550542572E+02  0.69430182719E+01  0.29274969106E+02  0.00000000000E+00 0. -1.
<mgrwt>
<rscale>  2 0.28439731E+02</rscale>
<asrwt>0</asrwt>
<pdfrwt beam="1">  1       21 0.49634940E-02 0.28439731E+02</pdfrwt>
<pdfrwt beam="2">  1       21 0.39157382E-02 0.28439731E+02</pdfrwt>
<totfact> 0.80773100E+07</totfact>
</mgrwt>
</event>
<event>
 4    1  0.7424968E+004  0.3430308E+02  0.7546771E-02  0.1554878E+00
         21   -1    0    0  501  502  0.00000000000E+00  0.00000000000E+00  0.47976442675E+02  0.47976442675E+02  0.00000000000E+00 0.  1.
         21   -1    0    0  502  503 -0.00000000000E+00 -0.00000000000E+00 -0.31239395211E+02  0.31239395211E+02  0.00000000000E+00 0.  1.
          2    1    1    2  501    0  0.31755262789E+02 -0.12973217574E+02 -0.99918289462E+01  0.35728668247E+02  0.00000000000E+00 0.  1.
         -2    1    1    2    0  503 -0.31755262789E+02  0.12973217574E+02  0.26728876411E+02  0.43487169639E+02  0.00000000000E+00 0. -1.
<mgrwt>
<rscale>  2 0.34303077E+02</rscale>
<asrwt>0</asrwt>
<pdfrwt beam="1">  1       21 0.73809912E-02 0.34303077E+02</pdfrwt>
<pdfrwt beam="2">  1       21 0.48060608E-02 0.34303077E+02</pdfrwt>
<totfact> 0.31804282E+07</totfact>
</mgrwt>
</event>
<event>
 4    1  0.7424968E+004  0.3465121E+02  0.7546771E-02  0.1551720E+00
         21   -1    0    0  503  502  0.00000000000E+00  0.00000000000E+00  0.33199207877E+01  0.33199207877E+01  0.00000000000E+00 0. -1.
         21   -1    0    0  501  503 -0.00000000000E+00 -0.00000000000E+00 -0.37638396252E+03  0.37638396252E+03  0.00000000000E+00 0. -1.
          3    1    1    2  501    0  0.78156721122E+01 -0.33758281396E+02 -0.14899097654E+03  0.15296737360E+03  0.00000000000E+00 0. -1.
         -3    1    1    2    0  502 -0.78156721122E+01  0.33758281396E+02 -0.22407306519E+03  0.22673650971E+03  0.00000000000E+00 0.  1.
<mgrwt>
<rscale>  2 0.34651209E+02</rscale>
<asrwt>0</asrwt>
<pdfrwt beam="1">  1       21 0.51075674E-03 0.34651209E+02</pdfrwt>
<pdfrwt beam="2">  1       21 0.57905259E-01 0.34651209E+02</pdfrwt>
<totfact> 0.25188924E+07</totfact>
</mgrwt>
</event>
<event>
 4    1  0.7424968E+004  0.2305641E+02  0.7546771E-02  0.1690597E+00
         21   -1    0    0  501  502  0.00000000000E+00  0.00000000000E+00  0.22320843501E+00  0.22320843501E+00  0.00000000000E+00 0. -1.
         21   -1    0    0  502  503 -0.00000000000E+00 -0.00000000000E+00 -0.24227229038E+04  0.24227229038E+04  0.00000000000E+00 0. -1.
          2    1    1    2  501    0  0.15244663066E+02 -0.17297349055E+02 -0.13690435043E+04  0.13692376400E+04  0.00000000000E+00 0. -1.
         -2    1    1    2    0  503 -0.15244663066E+02  0.17297349055E+02 -0.10534561911E+04  0.10537084723E+04  0.00000000000E+00 0.  1.
<mgrwt>
<rscale>  2 0.23056410E+02</rscale>
<asrwt>0</asrwt>
<pdfrwt beam="1">  1       21 0.34337499E-04 0.23056410E+02</pdfrwt>
<pdfrwt beam="2">  1       21 0.37275113E+00 0.23056410E+02</pdfrwt>
<totfact> 0.95953868E+06</totfact>
</mgrwt>
</event>
<event>
 4    1  0.7424968E+004  0.2430940E+02  0.7546771E-02  0.1671124E+00
         21   -1    0    0  503  502  0.00000000000E+00  0.00000000000E+00  0.13370474137E+03  0.13370474137E+03  0.00000000000E+00 0.  1.
         21   -1    0    0  501  503 -0.00000000000E+00 -0.00000000000E+00 -0.45864244487E+01  0.45864244487E+01  0.00000000000E+00 0.  1.
          4    1    1    2  501    0 -0.22574311501E+02  0.90192740996E+01  0.51379321296E+02  0.56839963950E+02  0.00000000000E+00 0. -1.
         -4    1    1    2    0  502  0.22574311501E+02 -0.90192740996E+01  0.77738995629E+02  0.81451201872E+02  0.00000000000E+00 0.  1.
<mgrwt>
<rscale>  2 0.24309398E+02</rscale>
<asrwt>0</asrwt>
<pdfrwt beam="1">  1       21 0.20569957E-01 0.24309398E+02</pdfrwt>
<pdfrwt beam="2">  1       21 0.70560386E-03 0.24309398E+02</pdfrwt>
<totfact> 0.10027218E+08</totfact>
</mgrwt>
</event>
<event>
 4    1  0.7424968E+004  0.2244873E+02  0.7546771E-02  0.1700605E+00
         21   -1    0    0  501  502  0.00000000000E+00  0.00000000000E+00  0.19242605363E+03  0.19242605363E+03  0.00000000000E+00 0.  1.
         21   -1    0    0  502  503 -0.00000000000E+00 -0.00000000000E+00 -0.26499095168E+01  0.26499095168E+01  0.00000000000E+00 0.  1.
          4    1    1    2  501    0  0.21254852100E+02  0.72233596831E+01  0.84337724638E+02  0.87274265737E+02  0.00000000000E+00 0. -1.
         -4    1    1    2    0  503 -0.21254852100E+02 -0.72233596831E+01  0.10543841947E+03  0.10780169741E+03  0.00000000000E+00 0.  1.
<mgrwt>
<rscale>  2 0.22448734E+02</rscale>
<asrwt>0</asrwt>
<pdfrwt beam="1">  1       21 0.29603997E-01 0.22448734E+02</pdfrwt>
<pdfrwt beam="2">  1       21 0.40767854E-03 0.22448734E+02</pdfrwt>
<totfact> 0.11535693E+08</totfact>
</mgrwt>
</event>
<event>
 4    1  0.7424968E+004  0.2164011E+02  0.7546771E-02  0.1714551E+00
         21   -1    0    0  501  502  0.00000000000E+00  0.00000000000E+00  0.19117200968E+02  0.19117200968E+02  0.00000000000E+00 0.  1.
         21   -1    0    0  502  503 -0.00000000000E+00 -0.00000000000E+00 -0.26806559748E+02  0.26806559748E+02  0.00000000000E+00 0.  1.
          1    1    1    2  501    0 -0.86250938791E+00 -0.21622916145E+02 -0.10586048633E+02  0.24090638238E+02  0.00000000000E+00 0. -1.
         -1    1    1    2    0  503  0.86250938791E+00  0.21622916145E+02  0.28966898538E+01  0.21833122478E+02  0.00000000000E+00 0.  1.
<mgrwt>
<rscale>  2 0.21640111E+02</rscale>
<asrwt>0</asrwt>
<pdfrwt beam="1">  1       21 0.29411078E-02 0.21640111E+02</pdfrwt>
<pdfrwt beam="2">  1       21 0.41240861E-02 0.21640111E+02</pdfrwt>
<totfact> 0.15741757E+08</totfact>
</mgrwt>
</event>
<event>
 4    1  0.7424968E+004  0.2804016E+02  0.7546771E-02  0.1620820E+00
         21   -1    0    0  503  502  0.00000000000E+00  0.00000000000E+00  0.12327250515E+02  0.12327250515E+02  0.00000000000E+00 0. -1.
         21   -1    0    0  501  503 -0.00000000000E+00 -0.00000000000E+00 -0.67334867854E+02  0.67334867854E+02  0.00000000000E+00 0. -1.
          4    1    1    2  501    0  0.25549227798E+02  0.11553672511E+02 -0.36653840893E+02  0.46149262635E+02  0.00000000000E+00 0.  1.
         -4    1    1    2    0  502 -0.25549227798E+02 -0.11553672511E+02 -0.18353776446E+02  0.33512855733E+02  0.00000000000E+00 0. -1.
<mgrwt>
<rscale>  2 0.28040157E+02</rscale>
<asrwt>0</asrwt>
<pdfrwt beam="1">  1       21 0.18965001E-02 0.28040157E+02</pdfrwt>
<pdfrwt beam="2">  1       21 0.10359211E-01 0.28040157E+02</pdfrwt>
<totfact> 0.75058315E+07</totfact>
</mgrwt>
</event>
<event>
 4    1  0.7424968E+004  0.2114129E+02  0.7546771E-02  0.1723541E+00
         21   -1    0    0  503  502  0.00000000000E+00  0.00000000000E+00  0.13817359816E+03  0.13817359816E+03  0.00000000000E+00 0.  1.
         21   -1    0    0  501  503 -0.00000000000E+00 -0.00000000000E+00 -0.34915274261E+01  0.34915274261E+01  0.00000000000E+00 0.  1.
          2    1    1    2  501    0  0.19829294850E+02  0.73316520757E+01  0.48131274995E+02  0.52569703148E+02  0.00000000000E+00 0. -1.
         -2    1    1    2    0  502 -0.19829294850E+02 -0.73316520757E+01  0.86550795739E+02  0.89095422438E+02  0.00000000000E+00 0.  1.
<mgrwt>
<rscale>  2 0.21141288E+02</rscale>
<asrwt>0</asrwt>
<pdfrwt beam="1">  1       21 0.21257472E-01 0.21141288E+02</pdfrwt>
<pdfrwt beam="2">  1       21 0.53715817E-03 0.21141288E+02</pdfrwt>
<totfact> 0.13633374E+08</totfact>
</mgrwt>
</event>
<event>
 4    1  0.7424968E+004  0.2963678E+02  0.7546771E-02  0.1602139E+00
         21   -1    0    0  503  502  0.00000000000E+00  0.00000000000E+00  0.38193530004E+03  0.38193530004E+03  0.00000000000E+00 0.  1.
         21   -1    0    0  501  503 -0.00000000000E+00 -0.00000000000E+00 -0.27032529769E+01  0.27032529769E+01  0.00000000000E+00 0.  1.
          4    1    1    2  501    0 -0.88637785335E+01 -0.28280240195E+02  0.26392255813E+03  0.26558135334E+03  0.00000000000E+00 0. -1.
         -4    1    1    2    0  502  0.88637785335E+01  0.28280240195E+02  0.11530948894E+03  0.11905719967E+03  0.00000000000E+00 0.  1.
<mgrwt>
<rscale>  2 0.29636777E+02</rscale>
<asrwt>0</asrwt>
<pdfrwt beam="1">  1       21 0.58759234E-01 0.29636777E+02</pdfrwt>
<pdfrwt beam="2">  1       21 0.41588538E-03 0.29636777E+02</pdfrwt>
<totfact> 0.32308173E+07</totfact>
</mgrwt>
</event>
<event>
 4    1  0.7424968E+004  0.2663932E+02  0.7546771E-02  0.1638514E+00
         21   -1    0    0  501  502  0.00000000000E+00  0.00000000000E+00  0.40361104181E+00  0.40361104181E+00  0.00000000000E+00 0. -1.
         21   -1    0    0  502  503 -0.00000000000E+00 -0.00000000000E+00 -0.18896585231E+04  0.18896585231E+04  0.00000000000E+00 0. -1.
          5    1    1    2  501    0 -0.80157457141E+01  0.25404749977E+02 -0.11938275649E+04  0.11941247457E+04  0.00000000000E+00 0.  1.
         -5    1    1    2    0  503  0.80157457141E+01 -0.25404749977E+02 -0.69542734715E+03  0.69593738847E+03  0.00000000000E+00 0. -1.
<mgrwt>
<rscale>  2 0.26639322E+02</rscale>
<asrwt>0</asrwt>
<pdfrwt beam="1">  1       21 0.62095280E-04 0.26639322E+02</pdfrwt>
<pdfrwt beam="2">  1       21 0.29071073E+00 0.26639322E+02</pdfrwt>
<totfact> 0.10648304E+07</totfact>
</mgrwt>
</event>
<event>
 4    1  0.7424968E+004  0.2591302E+02  0.7546771E-02  0.1648224E+00
         21   -1    0    0  501  502  0.00000000000E+00  0.00000000000E+00  0.10333688388E+02  0.10333688388E+02  0.00000000000E+00 0. -1.
         21   -1    0    0  502  503 -0.00000000000E+00 -0.00000000000E+00 -0.40003479228E+03  0.40003479228E+03  0.00000000000E+00 0. -1.
          1    1    1    2  501    0  0.25880192862E+02  0.13038382545E+01 -0.38263211658E+03  0.38350856707E+03  0.00000000000E+00 0.  1.
         -1    1    1    2    0  503 -0.25880192862E+02 -0.13038382545E+01 -0.70689873075E+01  0.26859913594E+02  0.00000000000E+00 0. -1.
<mgrwt>
<rscale>  2 0.25913016E+02</rscale>
<asrwt>0</asrwt>
<pdfrwt beam="1">  1       21 0.15897982E-02 0.25913016E+02</pdfrwt>
<pdfrwt beam="2">  1       21 0.61543816E-01 0.25913016E+02</pdfrwt>
<totfact> 0.38356520E+06</totfact>
</mgrwt>
</event>
<event>
 4    1  0.7424968E+004  0.2595794E+02  0.7546771E-02  0.1647612E+00
         21   -1    0    0  503  502  0.00000000000E+00  0.00000000000E+00  0.12670515052E+03  0.12670515052E+03  0.00000000000E+00 0.  1.
         21   -1    0    0  501  503 -0.00000000000E+00 -0.00000000000E+00 -0.59314467689E+01  0.59314467689E+01  0.00000000000E+00 0.  1.
          5    1    1    2  501    0  0.12435373603E+02 -0.22785433654E+02  0.81714906318E+02  0.85738791792E+02  0.00000000000E+00 0. -1.
         -5    1    1    2    0  502 -0.12435373603E+02  0.22785433654E+02  0.39058797430E+02  0.46897805493E+02  0.00000000000E+00 0.  1.
<mgrwt>
<rscale>  2 0.25957937E+02</rscale>
<asrwt>0</asrwt>
<pdfrwt beam="1">  1       21 0.19493098E-01 0.25957937E+02</pdfrwt>
<pdfrwt beam="2">  1       21 0.91253037E-03 0.25957937E+02</pdfrwt>
<totfact> 0.76214915E+07</totfact>
</mgrwt>
</event>
<event>
 4    1  0.7424968E+004  0.2946087E+02  0.7546771E-02  0.1604126E+00
         21   -1    0    0  501  502  0.00000000000E+00  0.00000000000E+00  0.97921213881E+02  0.97921213881E+02  0.00000000000E+00 0. -1.
         21   -1    0    0  502  503 -0.00000000000E+00 -0.00000000000E+00 -0.12917348583E+02  0.12917348583E+02  0.00000000000E+00 0. -1.
          3    1    1    2  501    0 -0.19194427409E+01  0.29398273141E+02  0.11456473347E+02  0.31610022234E+02  0.00000000000E+00 0. -1.
         -3    1    1    2    0  503  0.19194427409E+01 -0.29398273141E+02  0.73547391952E+02  0.79228540230E+02  0.00000000000E+00 0.  1.
<mgrwt>
<rscale>  2 0.29460868E+02</rscale>
<asrwt>0</asrwt>
<pdfrwt beam="1">  1       21 0.15064802E-01 0.29460868E+02</pdfrwt>
<pdfrwt beam="2">  1       21 0.19872845E-02 0.29460868E+02</pdfrwt>
<totfact> 0.37440865E+07</totfact>
</mgrwt>
</event>
<event>
 4    1  0.7424968E+004  0.2197946E+02  0.7546771E-02  0.1708607E+00
         21   -1    0    0  501  502  0.00000000000E+00  0.00000000000E+00  0.41793713838E+01  0.41793713838E+01  0.00000000000E+00 0. -1.
         21   -1    0    0  502  503 -0.00000000000E+00 -0.00000000000E+00 -0.11618571566E+03  0.11618571566E+03  0.00000000000E+00 0. -1.
          3    1    1    2  501    0  0.20092034053E+02 -0.89110459935E+01 -0.51696430420E+02  0.56174883100E+02  0.00000000000E+00 0. -1.
         -3    1    1    2    0  503 -0.20092034053E+02  0.89110459935E+01 -0.60309913859E+02  0.64190203947E+02  0.00000000000E+00 0.  1.
<mgrwt>
<rscale>  2 0.21979458E+02</rscale>
<asrwt>0</asrwt>
<pdfrwt beam="1">  1       21 0.64298024E-03 0.21979458E+02</pdfrwt>
<pdfrwt beam="2">  1       21 0.17874725E-01 0.21979458E+02</pdfrwt>
<totfact> 0.14283537E+08</totfact>
</mgrwt>
</event>
<event>
 4    1  0.7424968E+004  0.2037161E+02  0.7546771E-02  0.1738038E+00
         21   -1    0    0  503  502  0.00000000000E+00  0.00000000000E+00  0.71768982737E+00  0.71768982737E+00  0.00000000000E+00 0.  1.
         21   -1    0    0  501  503 -0.00000000000E+00 -0.00000000000E+00 -0.58052956320E+03  0.58052956320E+03  0.00000000000E+00 0.  1.
          3    1    1    2  501    0 -0.15727687036E+02  0.12947672085E+02 -0.27168452077E+03  0.27244720806E+03  0.00000000000E+00 0. -1.
         -3    1    1    2    0  502  0.15727687036E+02 -0.12947672085E+02 -0.30812735260E+03  0.30880004497E+03  0.00000000000E+00 0.  1.
<mgrwt>
<rscale>  2 0.20371607E+02</rscale>
<asrwt>0</asrwt>
<pdfrwt beam="1">  1       21 0.11041409E-03 0.20371607E+02</pdfrwt>
<pdfrwt beam="2">  1       21 0.89312023E-01 0.20371607E+02</pdfrwt>
<totfact> 0.85521805E+07</totfact>
</mgrwt>
</event>
<event>
 4    1  0.7424968E+004  0.3454643E+02  0.7546771E-02  0.1552666E+00
         21   -1    0    0  503  502  0.00000000000E+00  0.00000000000E+00  0.35047244597E+02  0.35047244597E+02  0.00000000000E+00 0.  1.
         21   -1    0    0  501  503 -0.00000000000E+00 -0.00000000000E+00 -0.62806485764E+02  0.62806485764E+02  0.00000000000E+00 0.  1.
          1    1    1    2  501    0 -0.20034615797E+02 -0.28143742281E+02  0.19225263137E+02  0.39535639648E+02  0.00000000000E+00 0.  1.
         -1    1    1    2    0  502  0.20034615797E+02  0.28143742281E+02 -0.46984504304E+02  0.58318090713E+02  0.00000000000E+00 0. -1.
<mgrwt>
<rscale>  2 0.34546433E+02</rscale>
<asrwt>0</asrwt>
<pdfrwt beam="1">  1       21 0.53918838E-02 0.34546433E+02</pdfrwt>
<pdfrwt beam="2">  1       21 0.96625362E-02 0.34546433E+02</pdfrwt>
<totfact> 0.16895003E+07</totfact>
</mgrwt>
</event>
<event>
 4    1  0.7424968E+004  0.2242097E+02  0.7546771E-02  0.1701072E+00
         21   -1    0    0  503  502  0.00000000000E+00  0.00000000000E+00  0.83557598244E+03  0.83557598244E+03  0.00000000000E+00 0. -1.
         21   -1    0    0  501  503 -0.00000000000E+00 -0.00000000000E+00 -0.63608017637E+00  0.63608017637E+00  0.00000000000E+00 0. -1.
          3    1    1    2  501    0  0.63766348825E+01  0.21495075426E+02  0.32015370511E+03  0.32093783609E+03  0.00000000000E+00 0. -1.
         -3    1    1    2    0  502 -0.63766348825E+01 -0.21495075426E+02  0.51478619715E+03  0.51527422653E+03  0.00000000000E+00 0.  1.
<mgrwt>
<rscale>  2 0.22420967E+02</rscale>
<asrwt>0</asrwt>
<pdfrwt beam="1">  1       21 0.12854927E+00 0.22420967E+02</pdfrwt>
<pdfrwt beam="2">  1       21 0.97859157E-04 0.22420967E+02</pdfrwt>
<totfact> 0.46445053E+07</totfact>
</mgrwt>
</event>
<event>
 4    1  0.7424968E+004  0.2716498E+02  0.7546771E-02  0.1631721E+00
         21   -1    0    0  501  502  0.00000000000E+00  0.00000000000E+00  0.64286585813E+01  0.64286585813E+01  0.00000000000E+00 0.  1.
         21   -1    0    0  502  503 -0.00000000000E+00 -0.00000000000E+00 -0.12138976400E+03  0.12138976400E+03  0.00000000000E+00 0.  1.
          1    1    1    2  501    0 -0.26012121225E+02 -0.78297802212E+01 -0.42577102270E+02  0.50504906164E+02  0.00000000000E+00 0. -1.
         -1    1    1    2    0  503  0.26012121225E+02  0.78297802212E+01 -0.72384003143E+02  0.77313516412E+02  0.00000000000E+00 0.  1.
<mgrwt>
<rscale>  2 0.27164976E+02</rscale>
<asrwt>0</asrwt>
<pdfrwt beam="1">  1       21 0.98902442E-03 0.27164976E+02</pdfrwt>
<pdfrwt beam="2">  1       21 0.18675348E-01 0.27164976E+02</pdfrwt>
<totfact> 0.73568512E+07</totfact>
</mgrwt>
</event>
<event>
 4    1  0.7424968E+004  0.3495849E+02  0.7546771E-02  0.1548969E+00
         21   -1    0    0  501  502  0.00000000000E+00  0.00000000000E+00  0.94514351388E+02  0.94514351388E+02  0.00000000000E+00 0.  1.
         21   -1    0    0  502  503 -0.00000000000E+00 -0.00000000000E+00 -0.14997294182E+02  0.14997294182E+02  0.00000000000E+00 0.  1.
          1    1    1    2  501    0  0.29675871492E+02 -0.18478065953E+02  0.60086611539E+02  0.69516164713E+02  0.00000000000E+00 0.  1.
         -1    1    1    2    0  503 -0.29675871492E+02  0.18478065953E+02  0.19430445667E+02  0.39995480857E+02  0.00000000000E+00 0. -1.
<mgrwt>
<rscale>  2 0.34958494E+02</rscale>
<asrwt>0</asrwt>
<pdfrwt beam="1">  1       21 0.14540669E-01 0.34958494E+02</pdfrwt>
<pdfrwt beam="2">  1       21 0.23072761E-02 0.34958494E+02</pdfrwt>
<totfact> 0.32633313E+07</totfact>
</mgrwt>
</event>
<event>
 4    1  0.7424968E+004  0.2130783E+02  0.7546771E-02  0.1720505E+00
         21   -1    0    0  501  502  0.00000000000E+00  0.00000000000E+00  0.19956864051E+02  0.19956864051E+02  0.00000000000E+00 0. -1.
         21   -1    0    0  502  503 -0.00000000000E+00 -0.00000000000E+00 -0.25981099430E+02  0.25981099430E+02  0.00000000000E+00 0. -1.
          1    1    1    2  501    0 -0.21175006927E+02 -0.23753956571E+01  0.50876412155E+01  0.21906791550E+02  0.00000000000E+00 0.  1.
         -1    1    1    2    0  503  0.21175006927E+02  0.23753956571E+01 -0.11111876595E+02  0.24031171931E+02  0.00000000000E+00 0. -1.
<mgrwt>
<rscale>  2 0.21307825E+02</rscale>
<asrwt>0</asrwt>
<pdfrwt beam="1">  1       21 0.30702868E-02 0.21307825E+02</pdfrwt>
<pdfrwt beam="2">  1       21 0.39970922E-02 0.21307825E+02</pdfrwt>
<totfact> 0.15393260E+08</totfact>
</mgrwt>
</event>
<event>
 4    1  0.7424968E+004  0.2137824E+02  0.7546771E-02  0.1719232E+00
         21   -1    0    0  501  502  0.00000000000E+00  0.00000000000E+00  0.96297783211E+00  0.96297783211E+00  0.00000000000E+00 0.  1.
         21   -1    0    0  502  503 -0.00000000000E+00 -0.00000000000E+00 -0.55517872633E+03  0.55517872633E+03  0.00000000000E+00 0.  1.
          4    1    1    2  501    0 -0.16884482754E+02  0.13112714738E+02 -0.17117032737E+03  0.17250017396E+03  0.00000000000E+00 0.  1.
         -4    1    1    2    0  503  0.16884482754E+02 -0.13112714738E+02 -0.38304542113E+03  0.38364153020E+03  0.00000000000E+00 0. -1.
<mgrwt>
<rscale>  2 0.21378238E+02</rscale>
<asrwt>0</asrwt>
<pdfrwt beam="1">  1       21 0.14815009E-03 0.21378238E+02</pdfrwt>
<pdfrwt beam="2">  1       21 0.85412309E-01 0.21378238E+02</pdfrwt>
<totfact> 0.62565102E+07</totfact>
</mgrwt>
</event>
<event>
 4    1  0.7424968E+004  0.2087366E+02  0.7546771E-02  0.1728492E+00
         21   -1    0    0  503  502  0.00000000000E+00  0.00000000000E+00  0.76698887426E+02  0.76698887426E+02  0.00000000000E+00 0.  1.
         21   -1    0    0  501  503 -0.00000000000E+00 -0.00000000000E+00 -0.63051138156E+01  0.63051138156E+01  0.00000000000E+00 0.  1.
          1    1    1    2  501    0  0.60528299105E+01 -0.19976813603E+02  0.22137297538E+02  0.30426465025E+02  0.00000000000E+00 0. -1.
         -1    1    1    2    0  502 -0.60528299105E+01  0.19976813603E+02  0.48256476072E+02  0.52577536216E+02  0.00000000000E+00 0.  1.
<mgrwt>
<rscale>  2 0.20873664E+02</rscale>
<asrwt>0</asrwt>
<pdfrwt beam="1">  1       21 0.11799828E-01 0.20873664E+02</pdfrwt>
<pdfrwt beam="2">  1       21 0.97001757E-03 0.20873664E+02</pdfrwt>
<totfact> 0.15408241E+08</totfact>
</mgrwt>
</event>
<event>
 4    1  0.7424968E+004  0.2045380E+02  0.7546771E-02  0.1736451E+00
         21   -1    0    0  501  502  0.00000000000E+00  0.00000000000E+00  0.76846785793E+02  0.76846785793E+02  0.00000000000E+00 0. -1.
         21   -1    0    0  502  503 -0.00000000000E+00 -0.00000000000E+00 -0.56986947853E+01  0.56986947853E+01  0.00000000000E+00 0. -1.
          2    1    1    2  501    0 -0.19916327860E+02  0.46581011061E+01  0.26849558013E+02  0.33752878201E+02  0.00000000000E+00 0. -1.
         -2    1    1    2    0  503  0.19916327860E+02 -0.46581011061E+01  0.44298532995E+02  0.48792602378E+02  0.00000000000E+00 0.  1.
<mgrwt>
<rscale>  2 0.20453802E+02</rscale>
<asrwt>0</asrwt>
<pdfrwt beam="1">  1       21 0.11822582E-01 0.20453802E+02</pdfrwt>
<pdfrwt beam="2">  1       21 0.87672233E-03 0.20453802E+02</pdfrwt>
<totfact> 0.17749798E+08</totfact>
</mgrwt>
</event>
<event>
 4    1  0.7424968E+004  0.4199118E+02  0.7546771E-02  0.1494050E+00
         21   -1    0    0  503  502  0.00000000000E+00  0.00000000000E+00  0.62067618387E+02  0.62067618387E+02  0.00000000000E+00 0.  1.
         21   -1    0    0  501  503 -0.00000000000E+00 -0.00000000000E+00 -0.30898869631E+02  0.30898869631E+02  0.00000000000E+00 0.  1.
          5    1    1    2  501    0 -0.36850851793E+02  0.20131419159E+02  0.23884124465E+01  0.42059051692E+02  0.00000000000E+00 0. -1.
         -5    1    1    2    0  502  0.36850851793E+02 -0.20131419159E+02  0.28780336310E+02  0.50907436326E+02  0.00000000000E+00 0.  1.
<mgrwt>
<rscale>  2 0.41991181E+02</rscale>
<asrwt>0</asrwt>
<pdfrwt beam="1">  1       21 0.95488644E-02 0.41991181E+02</pdfrwt>
<pdfrwt beam="2">  1       21 0.47536722E-02 0.41991181E+02</pdfrwt>
<totfact> 0.21829704E+07</totfact>
</mgrwt>
</event>
<event>
 4    1  0.7424968E+004  0.2442421E+02  0.7546771E-02  0.1669413E+00
         21   -1    0    0  503  502  0.00000000000E+00  0.00000000000E+00  0.42893690851E+01  0.42893690851E+01  0.00000000000E+00 0. -1.
         21   -1    0    0  501  503 -0.00000000000E+00 -0.00000000000E+00 -0.13910067877E+03  0.13910067877E+03  0.00000000000E+00 0. -1.
          1    1    1    2  501    0 -0.14724587351E+02  0.19486626615E+02 -0.66423101085E+02  0.70771254385E+02  0.00000000000E+00 0.  1.
         -1    1    1    2    0  502  0.14724587351E+02 -0.19486626615E+02 -0.68388208599E+02  0.72618793469E+02  0.00000000000E+00 0. -1.
<mgrwt>
<rscale>  2 0.24424211E+02</rscale>
<asrwt>0</asrwt>
<pdfrwt beam="1">  1       21 0.65990288E-03 0.24424211E+02</pdfrwt>
<pdfrwt beam="2">  1       21 0.21400106E-01 0.24424211E+02</pdfrwt>
<totfact> 0.10348121E+08</totfact>
</mgrwt>
</event>
<event>
 4    1  0.7424968E+004  0.2621682E+02  0.7546771E-02  0.1644115E+00
         21   -1    0    0  503  502  0.00000000000E+00  0.00000000000E+00  0.65918048908E+02  0.65918048908E+02  0.00000000000E+00 0. -1.
         21   -1    0    0  501  503 -0.00000000000E+00 -0.00000000000E+00 -0.10863736234E+02  0.10863736234E+02  0.00000000000E+00 0. -1.
          1    1    1    2  501    0 -0.23925570727E+02  0.10718619755E+02  0.35225398991E+02  0.43910710290E+02  0.00000000000E+00 0. -1.
         -1    1    1    2    0  502  0.23925570727E+02 -0.10718619755E+02  0.19828913683E+02  0.32871074852E+02  0.00000000000E+00 0.  1.
<mgrwt>
<rscale>  2 0.26216822E+02</rscale>
<asrwt>0</asrwt>
<pdfrwt beam="1">  1       21 0.10141238E-01 0.26216822E+02</pdfrwt>
<pdfrwt beam="2">  1       21 0.16713441E-02 0.26216822E+02</pdfrwt>
<totfact> 0.92856595E+07</totfact>
</mgrwt>
</event>
<event>
 4    1  0.7424968E+004  0.2449141E+02  0.7546771E-02  0.1668416E+00
         21   -1    0    0  501  502  0.00000000000E+00  0.00000000000E+00  0.33958927499E+01  0.33958927499E+01  0.00000000000E+00 0. -1.
         21   -1    0    0  502  503 -0.00000000000E+00 -0.00000000000E+00 -0.23569286910E+03  0.23569286910E+03  0.00000000000E+00 0. -1.
          2    1    1    2  501    0  0.78782159096E+01  0.23189712660E+02 -0.17598960051E+03  0.17768558902E+03  0.00000000000E+00 0.  1.
         -2    1    1    2    0  503 -0.78782159096E+01 -0.23189712660E+02 -0.56307375847E+02  0.61403172832E+02  0.00000000000E+00 0. -1.
<mgrwt>
<rscale>  2 0.24491408E+02</rscale>
<asrwt>0</asrwt>
<pdfrwt beam="1">  1       21 0.52244496E-03 0.24491408E+02</pdfrwt>
<pdfrwt beam="2">  1       21 0.36260447E-01 0.24491408E+02</pdfrwt>
<totfact> 0.56381846E+07</totfact>
</mgrwt>
</event>
<event>
 4    1  0.7424968E+004  0.4057249E+02  0.7546771E-02  0.1504040E+00
         21   -1    0    0  503  502  0.00000000000E+00  0.00000000000E+00  0.64449966045E+02  0.64449966045E+02  0.00000000000E+00 0.  1.
         21   -1    0    0  501  503 -0.00000000000E+00 -0.00000000000E+00 -0.25712281884E+02  0.25712281884E+02  0.00000000000E+00 0.  1.
          1    1    1    2  501    0 -0.40553882506E+02 -0.12285861653E+01  0.23046563808E+02  0.46661235663E+02  0.00000000000E+00 0.  1.
         -1    1    1    2    0  502  0.40553882506E+02  0.12285861653E+01  0.15691120353E+02  0.43501012266E+02  0.00000000000E+00 0. -1.
<mgrwt>
<rscale>  2 0.40572488E+02</rscale>
<asrwt>0</asrwt>
<pdfrwt beam="1">  1       21 0.99153794E-02 0.40572488E+02</pdfrwt>
<pdfrwt beam="2">  1       21 0.39557357E-02 0.40572488E+02</pdfrwt>
<totfact> 0.27404063E+07</totfact>
</mgrwt>
</event>
<event>
 4    1  0.7424968E+004  0.3001763E+02  0.7546771E-02  0.1597894E+00
         21   -1    0    0  503  502  0.00000000000E+00  0.00000000000E+00  0.17457074361E+04  0.17457074361E+04  0.00000000000E+00 0.  1.
         21   -1    0    0  501  503 -0.00000000000E+00 -0.00000000000E+00 -0.52366698458E+00  0.52366698458E+00  0.00000000000E+00 0.  1.
          5    1    1    2  501    0 -0.25620540255E+02 -0.15641163721E+02  0.76802825045E+03  0.76861463138E+03  0.00000000000E+00 0.  1.
         -5    1    1    2    0  502  0.25620540255E+02  0.15641163721E+02  0.97715551867E+03  0.97761647171E+03  0.00000000000E+00 0. -1.
<mgrwt>
<rscale>  2 0.30017630E+02</rscale>
<asrwt>0</asrwt>
<pdfrwt beam="1">  1       21 0.26856572E+00 0.30017630E+02</pdfrwt>
<pdfrwt beam="2">  1       21 0.80565549E-04 0.30017630E+02</pdfrwt>
<totfact> 0.94961240E+06</totfact>
</mgrwt>
</event>
<event>
 4    1  0.7424968E+004  0.2495854E+02  0.7546771E-02  0.1661598E+00
         21   -1    0    0  501  502  0.00000000000E+00  0.00000000000E+00  0.55466666689E+02  0.55466666689E+02  0.00000000000E+00 0.  1.
         21   -1    0    0  502  503 -0.00000000000E+00 -0.00000000000E+00 -0.13842431593E+02  0.13842431593E+02  0.00000000000E+00 0.  1.
          5    1    1    2  501    0  0.14217098066E+02 -0.20513473799E+02  0.57592290904E+01  0.25614394478E+02  0.00000000000E+00 0. -1.
         -5    1    1    2    0  503 -0.14217098066E+02  0.20513473799E+02  0.35865006006E+02  0.43694703804E+02  0.00000000000E+00 0.  1.
<mgrwt>
<rscale>  2 0.24958535E+02</rscale>
<asrwt>0</asrwt>
<pdfrwt beam="1">  1       21 0.85333332E-02 0.24958535E+02</pdfrwt>
<pdfrwt beam="2">  1       21 0.21296049E-02 0.24958535E+02</pdfrwt>
<totfact> 0.84046591E+07</totfact>
</mgrwt>
</event>
<event>
 4    1  0.7424968E+004  0.2139118E+02  0.7546771E-02  0.1718999E+00
         21   -1    0    0  501  502  0.00000000000E+00  0.00000000000E+00  0.80667013603E+01  0.80667013603E+01  0.00000000000E+00 0. -1.
         21   -1    0    0  502  503 -0.00000000000E+00 -0.00000000000E+00 -0.64904567534E+02  0.64904567534E+02  0.00000000000E+00 0. -1.
          2    1    1    2  501    0  0.49336125335E+01 -0.20814471374E+02 -0.15466470366E+02  0.26396864526E+02  0.00000000000E+00 0.  1.
         -2    1    1    2    0  503 -0.49336125335E+01  0.20814471374E+02 -0.41371395807E+02  0.46574404368E+02  0.00000000000E+00 0. -1.
<mgrwt>
<rscale>  2 0.21391184E+02</rscale>
<asrwt>0</asrwt>
<pdfrwt beam="1">  1       21 0.12410310E-02 0.21391184E+02</pdfrwt>
<pdfrwt beam="2">  1       21 0.99853180E-02 0.21391184E+02</pdfrwt>
<totfact> 0.14141688E+08</totfact>
</mgrwt>
</event>
<event>
 4    1  0.7424968E+004  0.2785207E+02  0.7546771E-02  0.1623122E+00
         21   -1    0    0  501  502  0.00000000000E+00  0.00000000000E+00  0.13541007029E+02  0.13541007029E+02  0.00000000000E+00 0. -1.
         21   -1    0    0  502  503 -0.00000000000E+00 -0.00000000000E+00 -0.63804746343E+02  0.63804746343E+02  0.00000000000E+00 0. -1.
          2    1    1    2  501    0  0.27757770842E+02  0.22899507908E+01 -0.37491177456E+02  0.46704668972E+02  0.00000000000E+00 0.  1.
         -2    1    1    2    0  503 -0.27757770842E+02 -0.22899507908E+01 -0.12772561858E+02  0.30641084399E+02  0.00000000000E+00 0. -1.
<mgrwt>
<rscale>  2 0.27852068E+02</rscale>
<asrwt>0</asrwt>
<pdfrwt beam="1">  1       21 0.20832319E-02 0.27852068E+02</pdfrwt>
<pdfrwt beam="2">  1       21 0.98161148E-02 0.27852068E+02</pdfrwt>
<totfact> 0.70906374E+07</totfact>
</mgrwt>
</event>
<event>
 4    1  0.7424968E+004  0.2054976E+02  0.7546771E-02  0.1734611E+00
         21   -1    0    0  501  502  0.00000000000E+00  0.00000000000E+00  0.49293158550E+02  0.49293158550E+02  0.00000000000E+00 0. -1.
         21   -1    0    0  502  503 -0.00000000000E+00 -0.00000000000E+00 -0.88144968284E+01  0.88144968284E+01  0.00000000000E+00 0. -1.
          5    1    1    2  501    0  0.79064305507E+01 -0.18967894013E+02  0.25108133778E+02  0.32445508613E+02  0.00000000000E+00 0.  1.
         -5    1    1    2    0  503 -0.79064305507E+01  0.18967894013E+02  0.15370527944E+02  0.25662146766E+02  0.00000000000E+00 0. -1.
<mgrwt>
<rscale>  2 0.20549760E+02</rscale>
<asrwt>0</asrwt>
<pdfrwt beam="1">  1       21 0.75835627E-02 0.20549760E+02</pdfrwt>
<pdfrwt beam="2">  1       21 0.13560765E-02 0.20549760E+02</pdfrwt>
<totfact> 0.19152694E+08</totfact>
</mgrwt>
</event>
<event>
 4    1  0.7424968E+004  0.2519988E+02  0.7546771E-02  0.1658147E+00
         21   -1    0    0  503  502  0.00000000000E+00  0.00000000000E+00  0.61227377265E+02  0.61227377265E+02  0.00000000000E+00 0. -1.
         21   -1    0    0  501  503 -0.00000000000E+00 -0.00000000000E+00 -0.11163312830E+02  0.11163312830E+02  0.00000000000E+00 0. -1.
          3    1    1    2  501    0  0.47691076548E+01  0.24744483138E+02  0.15393646093E+02  0.29529615196E+02  0.00000000000E+00 0.  1.
         -3    1    1    2    0  502 -0.47691076548E+01 -0.24744483138E+02  0.34670418342E+02  0.42861074900E+02  0.00000000000E+00 0. -1.
<mgrwt>
<rscale>  2 0.25199878E+02</rscale>
<asrwt>0</asrwt>
<pdfrwt beam="1">  1       21 0.94195963E-02 0.25199878E+02</pdfrwt>
<pdfrwt beam="2">  1       21 0.17174328E-02 0.25199878E+02</pdfrwt>
<totfact> 0.99640136E+07</totfact>
</mgrwt>
</event>
<event>
 4    1  0.7424968E+004  0.2225844E+02  0.7546771E-02  0.1703820E+00
         21   -1    0    0  501  502  0.00000000000E+00  0.00000000000E+00  0.65495713538E+03  0.65495713538E+03  0.00000000000E+00 0. -1.
         21   -1    0    0  502  503 -0.00000000000E+00 -0.00000000000E+00 -0.77177568887E+00  0.77177568887E+00  0.00000000000E+00 0. -1.
          1    1    1    2  501    0  0.28380986822E+01  0.22076761695E+02  0.37330393580E+03  0.37396693263E+03  0.00000000000E+00 0. -1.
         -1    1    1    2    0  503 -0.28380986822E+01 -0.22076761695E+02  0.28088142389E+03  0.28176197845E+03  0.00000000000E+00 0.  1.
<mgrwt>
<rscale>  2 0.22258441E+02</rscale>
<asrwt>0</asrwt>
<pdfrwt beam="1">  1       21 0.10076219E+00 0.22258441E+02</pdfrwt>
<pdfrwt beam="2">  1       21 0.11873525E-03 0.22258441E+02</pdfrwt>
<totfact> 0.60745810E+07</totfact>
</mgrwt>
</event>
<event>
 4    1  0.7424968E+004  0.2179800E+02  0.7546771E-02  0.1711769E+00
         21   -1    0    0  503  502  0.00000000000E+00  0.00000000000E+00  0.23986060685E+02  0.23986060685E+02  0.00000000000E+00 0.  1.
         21   -1    0    0  501  503 -0.00000000000E+00 -0.00000000000E+00 -0.19839610962E+02  0.19839610962E+02  0.00000000000E+00 0.  1.
          2    1    1    2  501    0  0.13426703985E+02 -0.17171964469E+02  0.12200633667E+01  0.21832116211E+02  0.00000000000E+00 0. -1.
         -2    1    1    2    0  502 -0.13426703985E+02  0.17171964469E+02  0.29263863559E+01  0.21993555436E+02  0.00000000000E+00 0.  1.
<mgrwt>
<rscale>  2 0.21797999E+02</rscale>
<asrwt>0</asrwt>
<pdfrwt beam="1">  1       21 0.36901632E-02 0.21797999E+02</pdfrwt>
<pdfrwt beam="2">  1       21 0.30522479E-02 0.21797999E+02</pdfrwt>
<totfact> 0.17735171E+08</totfact>
</mgrwt>
</event>
<event>
 4    1  0.7424968E+004  0.2093308E+02  0.7546771E-02  0.1727385E+00
         21   -1    0    0  501  502  0.00000000000E+00  0.00000000000E+00  0.12135996255E+03  0.12135996255E+03  0.00000000000E+00 0. -1.
         21   -1    0    0  502  503 -0.00000000000E+00 -0.00000000000E+00 -0.36124432620E+01  0.36124432620E+01  0.00000000000E+00 0. -1.
          4    1    1    2  501    0 -0.15962334278E+02 -0.13542448976E+02  0.57499871284E+02  0.61191741580E+02  0.00000000000E+00 0. -1.
         -4    1    1    2    0  503  0.15962334278E+02  0.13542448976E+02  0.60247648003E+02  0.63780664232E+02  0.00000000000E+00 0.  1.
<mgrwt>
<rscale>  2 0.20933085E+02</rscale>
<asrwt>0</asrwt>
<pdfrwt beam="1">  1       21 0.18670760E-01 0.20933085E+02</pdfrwt>
<pdfrwt beam="2">  1       21 0.55576059E-03 0.20933085E+02</pdfrwt>
<totfact> 0.16197668E+08</totfact>
</mgrwt>
</event>
<event>
 4    1  0.7424968E+004  0.2099961E+02  0.7546771E-02  0.1726150E+00
         21   -1    0    0  503  502  0.00000000000E+00  0.00000000000E+00  0.37477220751E+01  0.37477220751E+01  0.00000000000E+00 0. -1.
         21   -1    0    0  501  503 -0.00000000000E+00 -0.00000000000E+00 -0.13908900377E+03  0.13908900377E+03  0.00000000000E+00 0. -1.
          1    1    1    2  501    0 -0.68104265791E+01 -0.19864585738E+02 -0.39642629466E+02  0.44861138502E+02  0.00000000000E+00 0.  1.
         -1    1    1    2    0  502  0.68104265791E+01  0.19864585738E+02 -0.95698652228E+02  0.97975587342E+02  0.00000000000E+00 0. -1.
<mgrwt>
<rscale>  2 0.20999611E+02</rscale>
<asrwt>0</asrwt>
<pdfrwt beam="1">  1       21 0.57657268E-03 0.20999611E+02</pdfrwt>
<pdfrwt beam="2">  1       21 0.21398306E-01 0.20999611E+02</pdfrwt>
<totfact> 0.12117196E+08</totfact>
</mgrwt>
</event>
<event>
 4    1  0.7424968E+004  0.2072177E+02  0.7546771E-02  0.1731344E+00
         21   -1    0    0  503  502  0.00000000000E+00  0.00000000000E+00  0.29499986447E+02  0.29499986447E+02  0.00000000000E+00 0.  1.
         21   -1    0    0  501  503 -0.00000000000E+00 -0.00000000000E+00 -0.16232801749E+02  0.16232801749E+02  0.00000000000E+00 0.  1.
          5    1    1    2  501    0  0.19480928736E+02  0.70629441563E+01 -0.71638266545E+00  0.20734149818E+02  0.00000000000E+00 0. -1.
         -5    1    1    2    0  502 -0.19480928736E+02 -0.70629441563E+01  0.13983567364E+02  0.24998638378E+02  0.00000000000E+00 0.  1.
<mgrwt>
<rscale>  2 0.20721770E+02</rscale>
<asrwt>0</asrwt>
<pdfrwt beam="1">  1       21 0.45384594E-02 0.20721770E+02</pdfrwt>
<pdfrwt beam="2">  1       21 0.24973541E-02 0.20721770E+02</pdfrwt>
<totfact> 0.17196608E+08</totfact>
</mgrwt>
</event>
<event>
 4    1  0.7424968E+004  0.3204280E+02  0.7546771E-02  0.1576547E+00
         21   -1    0    0  503  502  0.00000000000E+00  0.00000000000E+00  0.11593954887E+03  0.11593954887E+03  0.00000000000E+00 0. -1.
         21   -1    0    0  501  503 -0.00000000000E+00 -0.00000000000E+00 -0.88730103773E+01  0.88730103773E+01  0.00000000000E+00 0. -1.
          4    1    1    2  501    0 -0.24138377278E+02 -0.21073205140E+02  0.50787419801E+02  0.60050838816E+02  0.00000000000E+00 0.  1.
         -4    1    1    2    0  502  0.24138377278E+02  0.21073205140E+02  0.56279118690E+02  0.64761720430E+02  0.00000000000E+00 0. -1.
<mgrwt>
<rscale>  2 0.32042803E+02</rscale>
<asrwt>0</asrwt>
<pdfrwt beam="1">  1       21 0.17836853E-01 0.32042803E+02</pdfrwt>
<pdfrwt beam="2">  1       21 0.13650786E-02 0.32042803E+02</pdfrwt>
<totfact> 0.50674696E+07</totfact>
</mgrwt>
</event>
<event>
 4    1  0.7424968E+004  0.2218293E+02  0.7546771E-02  0.1705107E+00
         21   -1    0    0  501  502  0.00000000000E+00  0.00000000000E+00  0.48111418937E+01  0.48111418937E+01  0.00000000000E+00 0. -1.
         21   -1    0    0  502  503 -0.00000000000E+00 -0.00000000000E+00 -0.10409949380E+03  0.10409949380E+03  0.00000000000E+00 0. -1.
          4    1    1    2  501    0  0.21630853598E+02 -0.49181998878E+01 -0.42444417064E+02  0.47891659581E+02  0.00000000000E+00 0. -1.
         -4    1    1    2    0  503 -0.21630853598E+02  0.49181998878E+01 -0.56843934838E+02  0.61018976109E+02  0.00000000000E+00 0.  1.
<mgrwt>
<rscale>  2 0.22182933E+02</rscale>
<asrwt>0</asrwt>
<pdfrwt beam="1">  1       21 0.74017566E-03 0.22182933E+02</pdfrwt>
<pdfrwt beam="2">  1       21 0.16015307E-01 0.22182933E+02</pdfrwt>
<totfact> 0.14031334E+08</totfact>
</mgrwt>
</event>
<event>
 4    1  0.7424968E+004  0.2090753E+02  0.7546771E-02  0.1727861E+00
         21   -1    0    0  501  502  0.00000000000E+00  0.00000000000E+00  0.12955485302E+01  0.12955485302E+01  0.00000000000E+00 0. -1.
         21   -1    0    0  502  503 -0.00000000000E+00 -0.00000000000E+00 -0.33740874366E+03  0.33740874366E+03  0.00000000000E+00 0. -1.
          2    1    1    2  501    0 -0.96654364887E+01  0.18539257592E+02 -0.16860997420E+03  0.16990128938E+03  0.00000000000E+00 0. -1.
         -2    1    1    2    0  503  0.96654364887E+01 -0.18539257592E+02 -0.16750322093E+03  0.16880300281E+03  0.00000000000E+00 0.  1.
<mgrwt>
<rscale>  2 0.20907528E+02</rscale>
<asrwt>0</asrwt>
<pdfrwt beam="1">  1       21 0.19931487E-03 0.20907528E+02</pdfrwt>
<pdfrwt beam="2">  1       21 0.51909112E-01 0.20907528E+02</pdfrwt>
<totfact> 0.11152910E+08</totfact>
</mgrwt>
</event>
<event>
 4    1  0.7424968E+004  0.2463821E+02  0.7546771E-02  0.1666253E+00
         21   -1    0    0  501  502  0.00000000000E+00  0.00000000000E+00  0.44723819425E+02  0.44723819425E+02  0.00000000000E+00 0.  1.
         21   -1    0    0  502  503 -0.00000000000E+00 -0.00000000000E+00 -0.13663152521E+02  0.13663152521E+02  0.00000000000E+00 0.  1.
          2    1    1    2  501    0 -0.18460594242E+02 -0.16317099749E+02  0.13160399194E+02  0.27932729744E+02  0.00000000000E+00 0. -1.
         -2    1    1    2    0  503  0.18460594242E+02  0.16317099749E+02  0.17900267710E+02  0.30454242202E+02  0.00000000000E+00 0.  1.
<mgrwt>
<rscale>  2 0.24638208E+02</rscale>
<asrwt>0</asrwt>
<pdfrwt beam="1">  1       21 0.68805875E-02 0.24638208E+02</pdfrwt>
<pdfrwt beam="2">  1       21 0.21020235E-02 0.24638208E+02</pdfrwt>
<totfact> 0.12145242E+08</totfact>
</mgrwt>
</event>
<event>
 4    1  0.7424968E+004  0.3393832E+02  0.7546771E-02  0.1558236E+00
         21   -1    0    0  503  502  0.00000000000E+00  0.00000000000E+00  0.43936919399E+02  0.43936919399E+02  0.00000000000E+00 0.  1.
         21   -1    0    0  501  503 -0.00000000000E+00 -0.00000000000E+00 -0.29747921292E+02  0.29747921292E+02  0.00000000000E+00 0.  1.
          3    1    1    2  501    0  0.14236106944E+02  0.30808167091E+02 -0.56019374329E+01  0.34397552289E+02  0.00000000000E+00 0. -1.
         -3    1    1    2    0  502 -0.14236106944E+02 -0.30808167091E+02  0.19790935540E+02  0.39287288402E+02  0.00000000000E+00 0.  1.
<mgrwt>
<rscale>  2 0.33938325E+02</rscale>
<asrwt>0</asrwt>
<pdfrwt beam="1">  1       21 0.67595261E-02 0.33938325E+02</pdfrwt>
<pdfrwt beam="2">  1       21 0.45766032E-02 0.33938325E+02</pdfrwt>
<totfact> 0.39683739E+07</totfact>
</mgrwt>
</event>
<event>
 4    1  0.7424968E+004  0.2336839E+02  0.7546771E-02  0.1685607E+00
         21   -1    0    0  503  502  0.00000000000E+00  0.00000000000E+00  0.22542908492E+03  0.22542908492E+03  0.00000000000E+00 0.  1.
         21   -1    0    0  501  503 -0.00000000000E+00 -0.00000000000E+00 -0.26601645698E+01  0.26601645698E+01  0.00000000000E+00 0.  1.
          5    1    1    2  501    0 -0.18930685983E+01 -0.23291588711E+02  0.14547896774E+03  0.14734385589E+03  0.00000000000E+00 0. -1.
         -5    1    1    2    0  502  0.18930685983E+01  0.23291588711E+02  0.77289952614E+02  0.80745393605E+02  0.00000000000E+00 0.  1.
<mgrwt>
<rscale>  2 0.23368393E+02</rscale>
<asrwt>0</asrwt>
<pdfrwt beam="1">  1       21 0.34681383E-01 0.23368393E+02</pdfrwt>
<pdfrwt beam="2">  1       21 0.40925627E-03 0.23368393E+02</pdfrwt>
<totfact> 0.86752196E+07</totfact>
</mgrwt>
</event>
<event>
 4    1  0.7424968E+004  0.2818312E+02  0.7546771E-02  0.1619086E+00
         21   -1    0    0  501  502  0.00000000000E+00  0.00000000000E+00  0.46912290473E+03  0.46912290473E+03  0.00000000000E+00 0. -1.
         21   -1    0    0  502  503 -0.00000000000E+00 -0.00000000000E+00 -0.18868459626E+01  0.18868459626E+01  0.00000000000E+00 0. -1.
          1    1    1    2  501    0  0.27692027118E+02 -0.52383304105E+01  0.30907660968E+03  0.31035888762E+03  0.00000000000E+00 0. -1.
         -1    1    1    2    0  503 -0.27692027118E+02  0.52383304105E+01  0.15815944908E+03  0.16065086307E+03  0.00000000000E+00 0.  1.
<mgrwt>
<rscale>  2 0.28183124E+02</rscale>
<asrwt>0</asrwt>
<pdfrwt beam="1">  1       21 0.72172662E-01 0.28183124E+02</pdfrwt>
<pdfrwt beam="2">  1       21 0.29028437E-03 0.28183124E+02</pdfrwt>
<totfact> 0.35681385E+07</totfact>
</mgrwt>
</event>
<event>
 4    1  0.7424968E+004  0.4184258E+02  0.7546771E-02  0.1495074E+00
         21   -1    0    0  501  502  0.00000000000E+00  0.00000000000E+00  0.14293165027E+02  0.14293165027E+02  0.00000000000E+00 0.  1.
         21   -1    0    0  502  503 -0.00000000000E+00 -0.00000000000E+00 -0.18783254543E+03  0.18783254543E+03  0.00000000000E+00 0.  1.
          3    1    1    2  501    0  0.85143144010E+00 -0.41833920296E+02 -0.14637661503E+03  0.15223966385E+03  0.00000000000E+00 0.  1.
         -3    1    1    2    0  503 -0.85143144010E+00  0.41833920296E+02 -0.27162765370E+02  0.49886046600E+02  0.00000000000E+00 0. -1.
<mgrwt>
<rscale>  2 0.41842584E+02</rscale>
<asrwt>0</asrwt>
<pdfrwt beam="1">  1       21 0.21989485E-02 0.41842584E+02</pdfrwt>
<pdfrwt beam="2">  1       21 0.28897315E-01 0.41842584E+02</pdfrwt>
<totfact> 0.10614966E+07</totfact>
</mgrwt>
</event>
<event>
 4    1  0.7424968E+004  0.4592544E+02  0.7546771E-02  0.1468646E+00
         21   -1    0    0  503  502  0.00000000000E+00  0.00000000000E+00  0.46785315359E+02  0.46785315359E+02  0.00000000000E+00 0. -1.
         21   -1    0    0  501  503 -0.00000000000E+00 -0.00000000000E+00 -0.45309262690E+02  0.45309262690E+02  0.00000000000E+00 0. -1.
          3    1    1    2  501    0 -0.42910280427E+02 -0.16366253720E+02  0.40036741922E+01  0.46099629437E+02  0.00000000000E+00 0.  1.
         -3    1    1    2    0  502  0.42910280427E+02  0.16366253720E+02 -0.25276215231E+01  0.45994948611E+02  0.00000000000E+00 0. -1.
<mgrwt>
<rscale>  2 0.45925444E+02</rscale>
<asrwt>0</asrwt>
<pdfrwt beam="1">  1       21 0.71977408E-02 0.45925444E+02</pdfrwt>
<pdfrwt beam="2">  1       21 0.69706558E-02 0.45925444E+02</pdfrwt>
<totfact> 0.18953967E+07</totfact>
</mgrwt>
</event>
<event>
 4    1  0.7424968E+004  0.3502127E+02  0.7546771E-02  0.1548412E+00
         21   -1    0    0  503  502  0.00000000000E+00  0.00000000000E+00  0.27432567522E+01  0.27432567522E+01  0.00000000000E+00 0. -1.
         21   -1    0    0  501  503 -0.00000000000E+00 -0.00000000000E+00 -0.45071649792E+03  0.45071649792E+03  0.00000000000E+00 0. -1.
          1    1    1    2  501    0  0.33355759752E+02  0.10671588370E+02 -0.20365597036E+03  0.20664521231E+03  0.00000000000E+00 0.  1.
         -1    1    1    2    0  502 -0.33355759752E+02 -0.10671588370E+02 -0.24431727081E+03  0.24681454236E+03  0.00000000000E+00 0. -1.
<mgrwt>
<rscale>  2 0.35021272E+02</rscale>
<asrwt>0</asrwt>
<pdfrwt beam="1">  1       21 0.42203963E-03 0.35021272E+02</pdfrwt>
<pdfrwt beam="2">  1       21 0.69340978E-01 0.35021272E+02</pdfrwt>
<totfact> 0.23170902E+07</totfact>
</mgrwt>
</event>
<event>
 4    1  0.7424968E+004  0.2224478E+02  0.7546771E-02  0.1704053E+00
         21   -1    0    0  503  502  0.00000000000E+00  0.00000000000E+00  0.75630699758E+03  0.75630699758E+03  0.00000000000E+00 0. -1.
         21   -1    0    0  501  503 -0.00000000000E+00 -0.00000000000E+00 -0.10062374743E+01  0.10062374743E+01  0.00000000000E+00 0. -1.
          4    1    1    2  501    0 -0.20604745006E+02  0.83829915172E+01  0.15370315324E+03  0.15530450534E+03  0.00000000000E+00 0.  1.
         -4    1    1    2    0  502  0.20604745006E+02 -0.83829915172E+01  0.60159760687E+03  0.60200872972E+03  0.00000000000E+00 0. -1.
<mgrwt>
<rscale>  2 0.22244776E+02</rscale>
<asrwt>0</asrwt>
<pdfrwt beam="1">  1       21 0.11635447E+00 0.22244776E+02</pdfrwt>
<pdfrwt beam="2">  1       21 0.15480637E-03 0.22244776E+02</pdfrwt>
<totfact> 0.30207059E+07</totfact>
</mgrwt>
</event>
<event>
 4    1  0.7424968E+004  0.2567532E+02  0.7546771E-02  0.1651487E+00
         21   -1    0    0  501  502  0.00000000000E+00  0.00000000000E+00  0.96479673395E+02  0.96479673395E+02  0.00000000000E+00 0.  1.
         21   -1    0    0  502  503 -0.00000000000E+00 -0.00000000000E+00 -0.68396104505E+01  0.68396104505E+01  0.00000000000E+00 0.  1.
          4    1    1    2  501    0  0.15004034096E+02  0.20835094825E+02  0.46455240770E+02  0.53078353502E+02  0.00000000000E+00 0.  1.
         -4    1    1    2    0  503 -0.15004034096E+02 -0.20835094825E+02  0.43184822174E+02  0.50240930343E+02  0.00000000000E+00 0. -1.
<mgrwt>
<rscale>  2 0.25675323E+02</rscale>
<asrwt>0</asrwt>
<pdfrwt beam="1">  1       21 0.14843026E-01 0.25675323E+02</pdfrwt>
<pdfrwt beam="2">  1       21 0.10522478E-02 0.25675323E+02</pdfrwt>
<totfact> 0.98219322E+07</totfact>
</mgrwt>
</event>
<event>
 4    1  0.7424968E+004  0.2102043E+02  0.7546771E-02  0.1725765E+00
         21   -1    0    0  501  502  0.00000000000E+00  0.00000000000E+00  0.55578111615E+02  0.55578111615E+02  0.00000000000E+00 0. -1.
         21   -1    0    0  502  503 -0.00000000000E+00 -0.00000000000E+00 -0.88061597090E+01  0.88061597090E+01  0.00000000000E+00 0. -1.
          2    1    1    2  501    0 -0.20792784366E+02 -0.30852108338E+01  0.13349593172E+02  0.24901205702E+02  0.00000000000E+00 0.  1.
         -2    1    1    2    0  503  0.20792784366E+02  0.30852108338E+01  0.33422358734E+02  0.39483065622E+02  0.00000000000E+00 0. -1.
<mgrwt>
<rscale>  2 0.21020428E+02</rscale>
<asrwt>0</asrwt>
<pdfrwt beam="1">  1       21 0.85504785E-02 0.21020428E+02</pdfrwt>
<pdfrwt beam="2">  1       21 0.13547938E-02 0.21020428E+02</pdfrwt>
<totfact> 0.15893751E+08</totfact>
</mgrwt>
</event>
<event>
 4    1  0.7424968E+004  0.2205433E+02  0.7546771E-02  0.1707314E+00
         21   -1    0    0  501  502  0.00000000000E+00  0.00000000000E+00  0.18870790146E+01  0.18870790146E+01  0.00000000000E+00 0.  1.
         21   -1    0    0  502  503 -0.00000000000E+00 -0.00000000000E+00 -0.31492678898E+03  0.31492678898E+03  0.00000000000E+00 0.  1.
          3    1    1    2  501    0  0.21835993324E+02 -0.30956437159E+01 -0.89023350480E+02  0.91714505642E+02  0.00000000000E+00 0. -1.
         -3    1    1    2    0  503 -0.21835993324E+02  0.30956437159E+01 -0.22401635948E+03  0.22509936235E+03  0.00000000000E+00 0.  1.
<mgrwt>
<rscale>  2 0.22054333E+02</rscale>
<asrwt>0</asrwt>
<pdfrwt beam="1">  1       21 0.29032006E-03 0.22054333E+02</pdfrwt>
<pdfrwt beam="2">  1       21 0.48450240E-01 0.22054333E+02</pdfrwt>
<totfact> 0.75037376E+07</totfact>
</mgrwt>
</event>
<event>
 4    1  0.7424968E+004  0.2303330E+02  0.7546771E-02  0.1690971E+00
         21   -1    0    0  501  502  0.00000000000E+00  0.00000000000E+00  0.16656215578E+03  0.16656215578E+03  0.00000000000E+00 0.  1.
         21   -1    0    0  502  503 -0.00000000000E+00 -0.00000000000E+00 -0.31883357241E+01  0.31883357241E+01  0.00000000000E+00 0.  1.
          3    1    1    2  501    0 -0.10706246009E+00  0.23033051045E+02  0.84350894908E+02  0.87439158131E+02  0.00000000000E+00 0.  1.
         -3    1    1    2    0  503  0.10706246009E+00 -0.23033051045E+02  0.79022925150E+02  0.82311333375E+02  0.00000000000E+00 0. -1.
<mgrwt>
<rscale>  2 0.23033300E+02</rscale>
<asrwt>0</asrwt>
<pdfrwt beam="1">  1       21 0.25624940E-01 0.23033300E+02</pdfrwt>
<pdfrwt beam="2">  1       21 0.49051332E-03 0.23033300E+02</pdfrwt>
<totfact> 0.11478990E+08</totfact>
</mgrwt>
</event>
<event>
 4    1  0.7424968E+004  0.2541990E+02  0.7546771E-02  0.1655043E+00
         21   -1    0    0  503  502  0.00000000000E+00  0.00000000000E+00  0.27565587045E+01  0.27565587045E+01  0.00000000000E+00 0. -1.
         21   -1    0    0  501  503 -0.00000000000E+00 -0.00000000000E+00 -0.30292652344E+03  0.30292652344E+03  0.00000000000E+00 0. -1.
          4    1    1    2  501    0 -0.21620179611E+02 -0.13369338567E+02 -0.22277302869E+03  0.22421862923E+03  0.00000000000E+00 0.  1.
         -4    1    1    2    0  502  0.21620179611E+02  0.13369338567E+02 -0.77396936047E+02  0.81464452920E+02  0.00000000000E+00 0. -1.
<mgrwt>
<rscale>  2 0.25419901E+02</rscale>
<asrwt>0</asrwt>
<pdfrwt beam="1">  1       21 0.42408621E-03 0.25419901E+02</pdfrwt>
<pdfrwt beam="2">  1       21 0.46604052E-01 0.25419901E+02</pdfrwt>
<totfact> 0.48045453E+07</totfact>
</mgrwt>
</event>
<event>
 4    1  0.7424968E+004  0.6178824E+02  0.7546771E-02  0.1390477E+00
         21   -1    0    0  503  502  0.00000000000E+00  0.00000000000E+00  0.34794082555E+02  0.34794082555E+02  0.00000000000E+00 0.  1.
         21   -1    0    0  501  503 -0.00000000000E+00 -0.00000000000E+00 -0.11011427698E+03  0.11011427698E+03  0.00000000000E+00 0.  1.
          2    1    1    2  501    0 -0.38095970085E+02  0.48646512477E+02 -0.33353003442E+02  0.70215446673E+02  0.00000000000E+00 0.  1.
         -2    1    1    2    0  502  0.38095970085E+02 -0.48646512477E+02 -0.41967190985E+02  0.74692912864E+02  0.00000000000E+00 0. -1.
<mgrwt>
<rscale>  2 0.61788236E+02</rscale>
<asrwt>0</asrwt>
<pdfrwt beam="1">  1       21 0.53529358E-02 0.61788236E+02</pdfrwt>
<pdfrwt beam="2">  1       21 0.16940658E-01 0.61788236E+02</pdfrwt>
<totfact> 0.69846399E+06</totfact>
</mgrwt>
</event>
<event>
 4    1  0.7424968E+004  0.2790507E+02  0.7546771E-02  0.1622471E+00
         21   -1    0    0  503  502  0.00000000000E+00  0.00000000000E+00  0.29362958655E+01  0.29362958655E+01  0.00000000000E+00 0. -1.
         21   -1    0    0  501  503 -0.00000000000E+00 -0.00000000000E+00 -0.36074558869E+03  0.36074558869E+03  0.00000000000E+00 0. -1.
          1    1    1    2  501    0 -0.18843512440E+02 -0.20581905440E+02 -0.27248968869E+03  0.27391481017E+03  0.00000000000E+00 0.  1.
         -1    1    1    2    0  502  0.18843512440E+02  0.20581905440E+02 -0.85319604136E+02  0.89767074379E+02  0.00000000000E+00 0. -1.
<mgrwt>
<rscale>  2 0.27905068E+02</rscale>
<asrwt>0</asrwt>
<pdfrwt beam="1">  1       21 0.45173781E-03 0.27905068E+02</pdfrwt>
<pdfrwt beam="2">  1       21 0.55499324E-01 0.27905068E+02</pdfrwt>
<totfact> 0.31677452E+07</totfact>
</mgrwt>
</event>
<event>
 4    1  0.7424968E+004  0.3122585E+02  0.7546771E-02  0.1584921E+00
         21   -1    0    0  501  502  0.00000000000E+00  0.00000000000E+00  0.58757447506E+01  0.58757447506E+01  0.00000000000E+00 0.  1.
         21   -1    0    0  502  503 -0.00000000000E+00 -0.00000000000E+00 -0.20840310860E+03  0.20840310860E+03  0.00000000000E+00 0.  1.
          2    1    1    2  501    0 -0.12531025530E+02  0.28601173392E+02 -0.14962239200E+03  0.15284604643E+03  0.00000000000E+00 0. -1.
         -2    1    1    2    0  503  0.12531025530E+02 -0.28601173392E+02 -0.52904971846E+02  0.61432806921E+02  0.00000000000E+00 0.  1.
<mgrwt>
<rscale>  2 0.31225850E+02</rscale>
<asrwt>0</asrwt>
<pdfrwt beam="1">  1       21 0.90396088E-03 0.31225850E+02</pdfrwt>
<pdfrwt beam="2">  1       21 0.32062011E-01 0.31225850E+02</pdfrwt>
<totfact> 0.32865146E+07</totfact>
</mgrwt>
</event>
<event>
 4    1  0.7424968E+004  0.2756221E+02  0.7546771E-02  0.1626712E+00
         21   -1    0    0  501  502  0.00000000000E+00  0.00000000000E+00  0.21735995876E+03  0.21735995876E+03  0.00000000000E+00 0. -1.
         21   -1    0    0  502  503 -0.00000000000E+00 -0.00000000000E+00 -0.63830464846E+01  0.63830464846E+01  0.00000000000E+00 0. -1.
          1    1    1    2  501    0 -0.12449826984E+02 -0.24590188255E+02  0.18073848910E+03  0.18282799838E+03  0.00000000000E+00 0.  1.
         -1    1    1    2    0  503  0.12449826984E+02  0.24590188255E+02  0.30238423173E+02  0.40915006860E+02  0.00000000000E+00 0. -1.
<mgrwt>
<rscale>  2 0.27562212E+02</rscale>
<asrwt>0</asrwt>
<pdfrwt beam="1">  1       21 0.33439988E-01 0.27562212E+02</pdfrwt>
<pdfrwt beam="2">  1       21 0.98200732E-03 0.27562212E+02</pdfrwt>
<totfact> 0.26176182E+07</totfact>
</mgrwt>
</event>
<event>
 4    1  0.7424968E+004  0.2100397E+02  0.7546771E-02  0.1726070E+00
         21   -1    0    0  501  502  0.00000000000E+00  0.00000000000E+00  0.21827874233E+01  0.21827874233E+01  0.00000000000E+00 0. -1.
         21   -1    0    0  502  503 -0.00000000000E+00 -0.00000000000E+00 -0.20615253977E+03  0.20615253977E+03  0.00000000000E+00 0. -1.
          4    1    1    2  501    0 -0.20051313419E+02 -0.62539307061E+01 -0.87400904382E+02  0.89889292499E+02  0.00000000000E+00 0.  1.
         -4    1    1    2    0  503  0.20051313419E+02  0.62539307061E+01 -0.11656884796E+03  0.11844603469E+03  0.00000000000E+00 0. -1.
<mgrwt>
<rscale>  2 0.21003972E+02</rscale>
<asrwt>0</asrwt>
<pdfrwt beam="1">  1       21 0.33581349E-03 0.21003972E+02</pdfrwt>
<pdfrwt beam="2">  1       21 0.31715772E-01 0.21003972E+02</pdfrwt>
<totfact> 0.13260883E+08</totfact>
</mgrwt>
</event>
<event>
 4    1  0.7424968E+004  0.2628291E+02  0.7546771E-02  0.1643231E+00
         21   -1    0    0  503  502  0.00000000000E+00  0.00000000000E+00  0.93127604705E+01  0.93127604705E+01  0.00000000000E+00 0. -1.
         21   -1    0    0  501  503 -0.00000000000E+00 -0.00000000000E+00 -0.97616461696E+02  0.97616461696E+02  0.00000000000E+00 0. -1.
          1    1    1    2  501    0  0.32564170452E+01 -0.26080393732E+02 -0.17953126918E+02  0.31829325398E+02  0.00000000000E+00 0. -1.
         -1    1    1    2    0  502 -0.32564170452E+01  0.26080393732E+02 -0.70350574308E+02  0.75099896768E+02  0.00000000000E+00 0.  1.
<mgrwt>
<rscale>  2 0.26282907E+02</rscale>
<asrwt>0</asrwt>
<pdfrwt beam="1">  1       21 0.14327324E-02 0.26282907E+02</pdfrwt>
<pdfrwt beam="2">  1       21 0.15017917E-01 0.26282907E+02</pdfrwt>
<totfact> 0.60620696E+07</totfact>
</mgrwt>
</event>
<event>
 4    1  0.7424968E+004  0.2042139E+02  0.7546771E-02  0.1737076E+00
         21   -1    0    0  501  502  0.00000000000E+00  0.00000000000E+00  0.71428963165E+01  0.71428963165E+01  0.00000000000E+00 0. -1.
         21   -1    0    0  502  503 -0.00000000000E+00 -0.00000000000E+00 -0.79008687041E+02  0.79008687041E+02  0.00000000000E+00 0. -1.
          2    1    1    2  501    0  0.14517059124E+02 -0.14362735573E+02 -0.13924615031E+02  0.24716959410E+02  0.00000000000E+00 0. -1.
         -2    1    1    2    0  503 -0.14517059124E+02  0.14362735573E+02 -0.57941175694E+02  0.61434623947E+02  0.00000000000E+00 0.  1.
<mgrwt>
<rscale>  2 0.20421390E+02</rscale>
<asrwt>0</asrwt>
<pdfrwt beam="1">  1       21 0.10989070E-02 0.20421390E+02</pdfrwt>
<pdfrwt beam="2">  1       21 0.12155184E-01 0.20421390E+02</pdfrwt>
<totfact> 0.12085859E+08</totfact>
</mgrwt>
</event>
<event>
 4    1  0.7424968E+004  0.2040126E+02  0.7546771E-02  0.1737464E+00
         21   -1    0    0  501  502  0.00000000000E+00  0.00000000000E+00  0.17733369492E+01  0.17733369492E+01  0.00000000000E+00 0.  1.
         21   -1    0    0  502  503 -0.00000000000E+00 -0.00000000000E+00 -0.23931716877E+03  0.23931716877E+03  0.00000000000E+00 0.  1.
          2    1    1    2  501    0  0.67329611860E+01  0.19258209870E+02 -0.13550615954E+03  0.13703331962E+03  0.00000000000E+00 0. -1.
         -2    1    1    2    0  503 -0.67329611860E+01 -0.19258209870E+02 -0.10203767228E+03  0.10405718610E+03  0.00000000000E+00 0.  1.
<mgrwt>
<rscale>  2 0.20401260E+02</rscale>
<asrwt>0</asrwt>
<pdfrwt beam="1">  1       21 0.27282116E-03 0.20401260E+02</pdfrwt>
<pdfrwt beam="2">  1       21 0.36818014E-01 0.20401260E+02</pdfrwt>
<totfact> 0.13516499E+08</totfact>
</mgrwt>
</event>
<event>
 4    1  0.7424968E+004  0.2247244E+02  0.7546771E-02  0.1700207E+00
         21   -1    0    0  501  502  0.00000000000E+00  0.00000000000E+00  0.70644639107E+02  0.70644639107E+02  0.00000000000E+00 0. -1.
         21   -1    0    0  502  503 -0.00000000000E+00 -0.00000000000E+00 -0.80462061742E+01  0.80462061742E+01  0.00000000000E+00 0. -1.
          5    1    1    2  501    0  0.78843450991E+01  0.21043948046E+02  0.18157858330E+02  0.28891494702E+02  0.00000000000E+00 0. -1.
         -5    1    1    2    0  503 -0.78843450991E+01 -0.21043948046E+02  0.44440574603E+02  0.49799350578E+02  0.00000000000E+00 0.  1.
<mgrwt>
<rscale>  2 0.22472442E+02</rscale>
<asrwt>0</asrwt>
<pdfrwt beam="1">  1       21 0.10868406E-01 0.22472442E+02</pdfrwt>
<pdfrwt beam="2">  1       21 0.12378779E-02 0.22472442E+02</pdfrwt>
<totfact> 0.12520729E+08</totfact>
</mgrwt>
</event>
<event>
 4    1  0.7424968E+004  0.2095620E+02  0.7546771E-02  0.1726955E+00
         21   -1    0    0  501  502  0.00000000000E+00  0.00000000000E+00  0.27139137065E+01  0.27139137065E+01  0.00000000000E+00 0.  1.
         21   -1    0    0  502  503 -0.00000000000E+00 -0.00000000000E+00 -0.16539950046E+03  0.16539950046E+03  0.00000000000E+00 0.  1.
          5    1    1    2  501    0 -0.70844840540E+01  0.19722383060E+02 -0.68975114915E+02  0.72088340149E+02  0.00000000000E+00 0.  1.
         -5    1    1    2    0  503  0.70844840540E+01 -0.19722383060E+02 -0.93710471843E+02  0.96025074022E+02  0.00000000000E+00 0. -1.
<mgrwt>
<rscale>  2 0.20956200E+02</rscale>
<asrwt>0</asrwt>
<pdfrwt beam="1">  1       21 0.41752507E-03 0.20956200E+02</pdfrwt>
<pdfrwt beam="2">  1       21 0.25446084E-01 0.20956200E+02</pdfrwt>
<totfact> 0.14336188E+08</totfact>
</mgrwt>
</event>
<event>
 4    1  0.7424968E+004  0.2629793E+02  0.7546771E-02  0.1643030E+00
         21   -1    0    0  501  502  0.00000000000E+00  0.00000000000E+00  0.28335589201E+01  0.28335589201E+01  0.00000000000E+00 0. -1.
         21   -1    0    0  502  503 -0.00000000000E+00 -0.00000000000E+00 -0.25238076904E+03  0.25238076904E+03  0.00000000000E+00 0. -1.
          1    1    1    2  501    0  0.25567383324E+02  0.61554910436E+01 -0.14793255416E+03  0.15025186103E+03  0.00000000000E+00 0.  1.
         -1    1    1    2    0  503 -0.25567383324E+02 -0.61554910436E+01 -0.10161465596E+03  0.10496246694E+03  0.00000000000E+00 0. -1.
<mgrwt>
<rscale>  2 0.26297931E+02</rscale>
<asrwt>0</asrwt>
<pdfrwt beam="1">  1       21 0.43593203E-03 0.26297931E+02</pdfrwt>
<pdfrwt beam="2">  1       21 0.38827821E-01 0.26297931E+02</pdfrwt>
<totfact> 0.65873913E+07</totfact>
</mgrwt>
</event>
<event>
 4    1  0.7424968E+004  0.2187062E+02  0.7546771E-02  0.1710499E+00
         21   -1    0    0  501  502  0.00000000000E+00  0.00000000000E+00  0.59968720655E+01  0.59968720655E+01  0.00000000000E+00 0. -1.
         21   -1    0    0  502  503 -0.00000000000E+00 -0.00000000000E+00 -0.82208837549E+02  0.82208837549E+02  0.00000000000E+00 0. -1.
          2    1    1    2  501    0  0.17840035005E+02  0.12651374969E+02 -0.30497712590E+02  0.37529116840E+02  0.00000000000E+00 0.  1.
         -2    1    1    2    0  503 -0.17840035005E+02 -0.12651374969E+02 -0.45714252893E+02  0.50676592774E+02  0.00000000000E+00 0. -1.
<mgrwt>
<rscale>  2 0.21870623E+02</rscale>
<asrwt>0</asrwt>
<pdfrwt beam="1">  1       21 0.92259574E-03 0.21870623E+02</pdfrwt>
<pdfrwt beam="2">  1       21 0.12647513E-01 0.21870623E+02</pdfrwt>
<totfact> 0.15000126E+08</totfact>
</mgrwt>
</event>
<event>
 4    1  0.7424968E+004  0.2996217E+02  0.7546771E-02  0.1598507E+00
         21   -1    0    0  503  502  0.00000000000E+00  0.00000000000E+00  0.22371274641E+02  0.22371274641E+02  0.00000000000E+00 0.  1.
         21   -1    0    0  501  503 -0.00000000000E+00 -0.00000000000E+00 -0.21336702356E+03  0.21336702356E+03  0.00000000000E+00 0.  1.
          3    1    1    2  501    0 -0.28985943163E+02  0.75859678911E+01  0.10710409812E+02  0.31818936001E+02  0.00000000000E+00 0. -1.
         -3    1    1    2    0  502  0.28985943163E+02 -0.75859678911E+01 -0.20170615874E+03  0.20391936220E+03  0.00000000000E+00 0.  1.
<mgrwt>
<rscale>  2 0.29962173E+02</rscale>
<asrwt>0</asrwt>
<pdfrwt beam="1">  1       21 0.34417345E-02 0.29962173E+02</pdfrwt>
<pdfrwt beam="2">  1       21 0.32825696E-01 0.29962173E+02</pdfrwt>
<totfact> 0.39637162E+06</totfact>
</mgrwt>
</event>
<event>
 4    1  0.7424968E+004  0.2074297E+02  0.7546771E-02  0.1730944E+00
         21   -1    0    0  503  502  0.00000000000E+00  0.00000000000E+00  0.16905198037E+02  0.16905198037E+02  0.00000000000E+00 0. -1.
         21   -1    0    0  501  503 -0.00000000000E+00 -0.00000000000E+00 -0.31406636276E+02  0.31406636276E+02  0.00000000000E+00 0. -1.
          5    1    1    2  501    0 -0.75089064892E+01  0.19336165094E+02  0.32674644811E+01  0.20998744756E+02  0.00000000000E+00 0.  1.
         -5    1    1    2    0  502  0.75089064892E+01 -0.19336165094E+02 -0.17768902720E+02  0.27313089556E+02  0.00000000000E+00 0. -1.
<mgrwt>
<rscale>  2 0.20742974E+02</rscale>
<asrwt>0</asrwt>
<pdfrwt beam="1">  1       21 0.26007997E-02 0.20742974E+02</pdfrwt>
<pdfrwt beam="2">  1       21 0.48317902E-02 0.20742974E+02</pdfrwt>
<totfact> 0.14636052E+08</totfact>
</mgrwt>
</event>
<event>
 4    1  0.7424968E+004  0.2528586E+02  0.7546771E-02  0.1656930E+00
         21   -1    0    0  501  502  0.00000000000E+00  0.00000000000E+00  0.13053674422E+03  0.13053674422E+03  0.00000000000E+00 0. -1.
         21   -1    0    0  502  503 -0.00000000000E+00 -0.00000000000E+00 -0.51760219073E+01  0.51760219073E+01  0.00000000000E+00 0. -1.
          1    1    1    2  501    0  0.25022364973E+02 -0.36408495005E+01  0.46955062993E+02  0.53330596046E+02  0.00000000000E+00 0. -1.
         -1    1    1    2    0  503 -0.25022364973E+02  0.36408495005E+01  0.78405659315E+02  0.82382170077E+02  0.00000000000E+00 0.  1.
<mgrwt>
<rscale>  2 0.25285856E+02</rscale>
<asrwt>0</asrwt>
<pdfrwt beam="1">  1       21 0.20082574E-01 0.25285856E+02</pdfrwt>
<pdfrwt beam="2">  1       21 0.79631116E-03 0.25285856E+02</pdfrwt>
<totfact> 0.88176059E+07</totfact>
</mgrwt>
</event>
<event>
 4    1  0.7424968E+004  0.2055552E+02  0.7546771E-02  0.1734501E+00
         21   -1    0    0  501  502  0.00000000000E+00  0.00000000000E+00  0.16463019385E+01  0.16463019385E+01  0.00000000000E+00 0. -1.
         21   -1    0    0  502  503 -0.00000000000E+00 -0.00000000000E+00 -0.26655010152E+03  0.26655010152E+03  0.00000000000E+00 0. -1.
          5    1    1    2  501    0 -0.10768221562E+02 -0.17509281852E+02 -0.10661315901E+03  0.10857667899E+03  0.00000000000E+00 0. -1.
         -5    1    1    2    0  503  0.10768221562E+02  0.17509281852E+02 -0.15829064057E+03  0.15961972447E+03  0.00000000000E+00 0.  1.
<mgrwt>
<rscale>  2 0.20555524E+02</rscale>
<asrwt>0</asrwt>
<pdfrwt beam="1">  1       21 0.25327720E-03 0.20555524E+02</pdfrwt>
<pdfrwt beam="2">  1       21 0.41007712E-01 0.20555524E+02</pdfrwt>
<totfact> 0.12333873E+08</totfact>
</mgrwt>
</event>
<event>
 4    1  0.7424968E+004  0.2579081E+02  0.7546771E-02  0.1649896E+00
         21   -1    0    0  501  502  0.00000000000E+00  0.00000000000E+00  0.25226705697E+02  0.25226705697E+02  0.00000000000E+00 0.  1.
         21   -1    0    0  502  503 -0.00000000000E+00 -0.00000000000E+00 -0.27882636225E+02  0.27882636225E+02  0.00000000000E+00 0.  1.
          5    1    1    2  501    0 -0.33386908832E+01  0.25573793611E+02 -0.75180466702E+01  0.26864229046E+02  0.00000000000E+00 0.  1.
         -5    1    1    2    0  503  0.33386908832E+01 -0.25573793611E+02  0.48621161421E+01  0.26245112876E+02  0.00000000000E+00 0. -1.
<mgrwt>
<rscale>  2 0.25790808E+02</rscale>
<asrwt>0</asrwt>
<pdfrwt beam="1">  1       21 0.38810316E-02 0.25790808E+02</pdfrwt>
<pdfrwt beam="2">  1       21 0.42896364E-02 0.25790808E+02</pdfrwt>
<totfact> 0.10081982E+08</totfact>
</mgrwt>
</event>
<event>
 4    1  0.7424968E+004  0.2591821E+02  0.7546771E-02  0.1648153E+00
         21   -1    0    0  503  502  0.00000000000E+00  0.00000000000E+00  0.11498550499E+02  0.11498550499E+02  0.00000000000E+00 0.  1.
         21   -1    0    0  501  503 -0.00000000000E+00 -0.00000000000E+00 -0.61782637565E+02  0.61782637565E+02  0.00000000000E+00 0.  1.
          2    1    1    2  501    0  0.43494696178E+01 -0.25550652387E+02 -0.16594877986E+02  0.30775699809E+02  0.00000000000E+00 0. -1.
         -2    1    1    2    0  502 -0.43494696178E+01  0.25550652387E+02 -0.33689209080E+02  0.42505488255E+02  0.00000000000E+00 0.  1.
<mgrwt>
<rscale>  2 0.25918212E+02</rscale>
<asrwt>0</asrwt>
<pdfrwt beam="1">  1       21 0.17690078E-02 0.25918212E+02</pdfrwt>
<pdfrwt beam="2">  1       21 0.95050211E-02 0.25918212E+02</pdfrwt>
<totfact> 0.94499897E+07</totfact>
</mgrwt>
</event>
<event>
 4    1  0.7424968E+004  0.2147262E+02  0.7546771E-02  0.1717536E+00
         21   -1    0    0  503  502  0.00000000000E+00  0.00000000000E+00  0.26029251758E+02  0.26029251758E+02  0.00000000000E+00 0.  1.
         21   -1    0    0  501  503 -0.00000000000E+00 -0.00000000000E+00 -0.17868924299E+02  0.17868924299E+02  0.00000000000E+00 0.  1.
          5    1    1    2  501    0  0.20735924750E+02  0.55762634541E+01  0.61261583901E+01  0.22329422428E+02  0.00000000000E+00 0.  1.
         -5    1    1    2    0  502 -0.20735924750E+02 -0.55762634541E+01  0.20341690690E+01  0.21568753630E+02  0.00000000000E+00 0. -1.
<mgrwt>
<rscale>  2 0.21472617E+02</rscale>
<asrwt>0</asrwt>
<pdfrwt beam="1">  1       21 0.40045003E-02 0.21472617E+02</pdfrwt>
<pdfrwt beam="2">  1       21 0.27490653E-02 0.21472617E+02</pdfrwt>
<totfact> 0.18262074E+08</totfact>
</mgrwt>
</event>
<event>
 4    1  0.7424968E+004  0.3270299E+02  0.7546771E-02  0.1569999E+00
         21   -1    0    0  501  502  0.00000000000E+00  0.00000000000E+00  0.10488674848E+04  0.10488674848E+04  0.00000000000E+00 0. -1.
         21   -1    0    0  502  503 -0.00000000000E+00 -0.00000000000E+00 -0.10282630714E+01  0.10282630714E+01  0.00000000000E+00 0. -1.
          3    1    1    2  501    0 -0.32419416956E+02 -0.42972890924E+01  0.47589527929E+03  0.47701761199E+03  0.00000000000E+00 0. -1.
         -3    1    1    2    0  503  0.32419416956E+02  0.42972890924E+01  0.57194394248E+03  0.57287813593E+03  0.00000000000E+00 0.  1.
<mgrwt>
<rscale>  2 0.32702986E+02</rscale>
<asrwt>0</asrwt>
<pdfrwt beam="1">  1       21 0.16136337E+00 0.32702986E+02</pdfrwt>
<pdfrwt beam="2">  1       21 0.15819516E-03 0.32702986E+02</pdfrwt>
<totfact> 0.14427588E+07</totfact>
</mgrwt>
</event>
<event>
 4    1  0.7424968E+004  0.3297603E+02  0.7546771E-02  0.1567345E+00
         21   -1    0    0  503  502  0.00000000000E+00  0.00000000000E+00  0.72077331319E+03  0.72077331319E+03  0.00000000000E+00 0.  1.
         21   -1    0    0  501  503 -0.00000000000E+00 -0.00000000000E+00 -0.22510493410E+01  0.22510493410E+01  0.00000000000E+00 0.  1.
          3    1    1    2  501    0 -0.18293631915E+02 -0.27436497658E+02  0.56686698521E+03  0.56782532287E+03  0.00000000000E+00 0. -1.
         -3    1    1    2    0  502  0.18293631915E+02  0.27436497658E+02  0.15165527865E+03  0.15519903967E+03  0.00000000000E+00 0.  1.
<mgrwt>
<rscale>  2 0.32976027E+02</rscale>
<asrwt>0</asrwt>
<pdfrwt beam="1">  1       21 0.11088802E+00 0.32976027E+02</pdfrwt>
<pdfrwt beam="2">  1       21 0.34631586E-03 0.32976027E+02</pdfrwt>
<totfact> 0.11110598E+07</totfact>
</mgrwt>
</event>
<event>
 4    1  0.7424968E+004  0.2777610E+02  0.7546771E-02  0.1624057E+00
         21   -1    0    0  503  502  0.00000000000E+00  0.00000000000E+00  0.21670148656E+03  0.21670148656E+03  0.00000000000E+00 0. -1.
         21   -1    0    0  501  503 -0.00000000000E+00 -0.00000000000E+00 -0.35741545056E+01  0.35741545056E+01  0.00000000000E+00 0. -1.
          5    1    1    2  501    0 -0.24953130268E+02  0.12200544285E+02  0.99694723837E+02  0.10349178688E+03  0.00000000000E+00 0.  1.
         -5    1    1    2    0  502  0.24953130268E+02 -0.12200544285E+02  0.11343260822E+03  0.11678385419E+03  0.00000000000E+00 0. -1.
<mgrwt>
<rscale>  2 0.27776105E+02</rscale>
<asrwt>0</asrwt>
<pdfrwt beam="1">  1       21 0.33338680E-01 0.27776105E+02</pdfrwt>
<pdfrwt beam="2">  1       21 0.54987009E-03 0.27776105E+02</pdfrwt>
<totfact> 0.62885807E+07</totfact>
</mgrwt>
</event>
<event>
 4    1  0.7424968E+004  0.2247716E+02  0.7546771E-02  0.1700128E+00
         21   -1    0    0  501  502  0.00000000000E+00  0.00000000000E+00  0.16579703578E+01  0.16579703578E+01  0.00000000000E+00 0. -1.
         21   -1    0    0  502  503 -0.00000000000E+00 -0.00000000000E+00 -0.52054995236E+03  0.52054995236E+03  0.00000000000E+00 0. -1.
          4    1    1    2  501    0 -0.10049679142E+02  0.20105394034E+02 -0.42757178749E+03  0.42816218466E+03  0.00000000000E+00 0. -1.
         -4    1    1    2    0  503  0.10049679142E+02 -0.20105394034E+02 -0.91320194517E+02  0.94045738057E+02  0.00000000000E+00 0.  1.
<mgrwt>
<rscale>  2 0.22477164E+02</rscale>
<asrwt>0</asrwt>
<pdfrwt beam="1">  1       21 0.25507249E-03 0.22477164E+02</pdfrwt>
<pdfrwt beam="2">  1       21 0.80084568E-01 0.22477164E+02</pdfrwt>
<totfact> 0.33126732E+07</totfact>
</mgrwt>
</event>
<event>
 4    1  0.7424968E+004  0.2531859E+02  0.7546771E-02  0.1656468E+00
         21   -1    0    0  503  502  0.00000000000E+00  0.00000000000E+00  0.80030993177E+02  0.80030993177E+02  0.00000000000E+00 0. -1.
         21   -1    0    0  501  503 -0.00000000000E+00 -0.00000000000E+00 -0.93013966984E+01  0.93013966984E+01  0.00000000000E+00 0. -1.
          5    1    1    2  501    0 -0.14804103829E+02  0.20539461378E+02  0.52009309086E+02  0.57844612502E+02  0.00000000000E+00 0.  1.
         -5    1    1    2    0  502  0.14804103829E+02 -0.20539461378E+02  0.18720287393E+02  0.31487777374E+02  0.00000000000E+00 0. -1.
<mgrwt>
<rscale>  2 0.25318589E+02</rscale>
<asrwt>0</asrwt>
<pdfrwt beam="1">  1       21 0.12312460E-01 0.25318589E+02</pdfrwt>
<pdfrwt beam="2">  1       21 0.14309842E-02 0.25318589E+02</pdfrwt>
<totfact> 0.84313853E+07</totfact>
</mgrwt>
</event>
<event>
 4    1  0.7424968E+004  0.3244360E+02  0.7546771E-02  0.1572549E+00
         21   -1    0    0  501  502  0.00000000000E+00  0.00000000000E+00  0.15801642351E+02  0.15801642351E+02  0.00000000000E+00 0.  1.
         21   -1    0    0  502  503 -0.00000000000E+00 -0.00000000000E+00 -0.69858899128E+02  0.69858899128E+02  0.00000000000E+00 0.  1.
          1    1    1    2  501    0  0.28364481801E+02  0.15749388678E+02 -0.17795684718E+02  0.37003695304E+02  0.00000000000E+00 0.  1.
         -1    1    1    2    0  503 -0.28364481801E+02 -0.15749388678E+02 -0.36261572059E+02  0.48656846175E+02  0.00000000000E+00 0. -1.
<mgrwt>
<rscale>  2 0.32443598E+02</rscale>
<asrwt>0</asrwt>
<pdfrwt beam="1">  1       21 0.24310219E-02 0.32443598E+02</pdfrwt>
<pdfrwt beam="2">  1       21 0.10747523E-01 0.32443598E+02</pdfrwt>
<totfact> 0.49596833E+07</totfact>
</mgrwt>
</event>
<event>
 4    1  0.7424968E+004  0.4175536E+02  0.7546771E-02  0.1495677E+00
         21   -1    0    0  501  502  0.00000000000E+00  0.00000000000E+00  0.26717913836E+03  0.26717913836E+03  0.00000000000E+00 0. -1.
         21   -1    0    0  502  503 -0.00000000000E+00 -0.00000000000E+00 -0.68344389090E+01  0.68344389090E+01  0.00000000000E+00 0. -1.
          1    1    1    2  501    0  0.40563589475E+02  0.99047914748E+01  0.10104894239E+03  0.10933617171E+03  0.00000000000E+00 0.  1.
         -1    1    1    2    0  503 -0.40563589475E+02 -0.99047914748E+01  0.15929575706E+03  0.16467740556E+03  0.00000000000E+00 0. -1.
<mgrwt>
<rscale>  2 0.41755355E+02</rscale>
<asrwt>0</asrwt>
<pdfrwt beam="1">  1       21 0.41104475E-01 0.41755355E+02</pdfrwt>
<pdfrwt beam="2">  1       21 0.10514523E-02 0.41755355E+02</pdfrwt>
<totfact> 0.17105180E+07</totfact>
</mgrwt>
</event>
<event>
 4    1  0.7424968E+004  0.2609961E+02  0.7546771E-02  0.1645692E+00
         21   -1    0    0  503  502  0.00000000000E+00  0.00000000000E+00  0.23731008444E+02  0.23731008444E+02  0.00000000000E+00 0. -1.
         21   -1    0    0  501  503 -0.00000000000E+00 -0.00000000000E+00 -0.28954998535E+02  0.28954998535E+02  0.00000000000E+00 0. -1.
          4    1    1    2  501    0 -0.21072099124E+01 -0.26014407186E+02 -0.50616060293E+01  0.26585890439E+02  0.00000000000E+00 0. -1.
         -4    1    1    2    0  502  0.21072099124E+01  0.26014407186E+02 -0.16238406166E+00  0.26100116541E+02  0.00000000000E+00 0.  1.
<mgrwt>
<rscale>  2 0.26099611E+02</rscale>
<asrwt>0</asrwt>
<pdfrwt beam="1">  1       21 0.36509244E-02 0.26099611E+02</pdfrwt>
<pdfrwt beam="2">  1       21 0.44546152E-02 0.26099611E+02</pdfrwt>
<totfact> 0.10490035E+08</totfact>
</mgrwt>
</event>
<event>
 4    1  0.7424968E+004  0.2092041E+02  0.7546771E-02  0.1727621E+00
         21   -1    0    0  503  502  0.00000000000E+00  0.00000000000E+00  0.45066017584E+02  0.45066017584E+02  0.00000000000E+00 0. -1.
         21   -1    0    0  501  503 -0.00000000000E+00 -0.00000000000E+00 -0.97721970711E+01  0.97721970711E+01  0.00000000000E+00 0. -1.
          5    1    1    2  501    0  0.15726004615E+02 -0.13796961256E+02  0.15487848062E+02  0.26029537042E+02  0.00000000000E+00 0. -1.
         -5    1    1    2    0  502 -0.15726004615E+02  0.13796961256E+02  0.19805972451E+02  0.28808677612E+02  0.00000000000E+00 0.  1.
<mgrwt>
<rscale>  2 0.20920405E+02</rscale>
<asrwt>0</asrwt>
<pdfrwt beam="1">  1       21 0.69332333E-02 0.20920405E+02</pdfrwt>
<pdfrwt beam="2">  1       21 0.15034150E-02 0.20920405E+02</pdfrwt>
<totfact> 0.19049443E+08</totfact>
</mgrwt>
</event>
<event>
 4    1  0.7424968E+004  0.2579942E+02  0.7546771E-02  0.1649778E+00
         21   -1    0    0  503  502  0.00000000000E+00  0.00000000000E+00  0.53545508850E+03  0.53545508850E+03  0.00000000000E+00 0. -1.
         21   -1    0    0  501  503 -0.00000000000E+00 -0.00000000000E+00 -0.12958281784E+01  0.12958281784E+01  0.00000000000E+00 0. -1.
          2    1    1    2  501    0 -0.11529057819E+02 -0.23080102360E+02  0.21292974778E+03  0.21448703408E+03  0.00000000000E+00 0. -1.
         -2    1    1    2    0  502  0.11529057819E+02  0.23080102360E+02  0.32122951254E+03  0.32226388260E+03  0.00000000000E+00 0.  1.
<mgrwt>
<rscale>  2 0.25799424E+02</rscale>
<asrwt>0</asrwt>
<pdfrwt beam="1">  1       21 0.82377529E-01 0.25799424E+02</pdfrwt>
<pdfrwt beam="2">  1       21 0.19935861E-03 0.25799424E+02</pdfrwt>
<totfact> 0.45928573E+07</totfact>
</mgrwt>
</event>
<event>
 4    1  0.7424968E+004  0.2009200E+02  0.7546771E-02  0.1743505E+00
         21   -1    0    0  503  502  0.00000000000E+00  0.00000000000E+00  0.39982877944E+00  0.39982877944E+00  0.00000000000E+00 0.  1.
         21   -1    0    0  501  503 -0.00000000000E+00 -0.00000000000E+00 -0.16564571317E+04  0.16564571317E+04  0.00000000000E+00 0.  1.
          4    1    1    2  501    0  0.17015300842E+02 -0.10684947376E+02 -0.31036089590E+03  0.31101056938E+03  0.00000000000E+00 0. -1.
         -4    1    1    2    0  502 -0.17015300842E+02  0.10684947376E+02 -0.13456964070E+04  0.13458463911E+04  0.00000000000E+00 0.  1.
<mgrwt>
<rscale>  2 0.20092002E+02</rscale>
<asrwt>0</asrwt>
<pdfrwt beam="1">  1       21 0.61512158E-04 0.20092002E+02</pdfrwt>
<pdfrwt beam="2">  1       21 0.25483940E+00 0.20092002E+02</pdfrwt>
<totfact> 0.15829167E+07</totfact>
</mgrwt>
</event>
<event>
 4    1  0.7424968E+004  0.2512789E+02  0.7546771E-02  0.1659172E+00
         21   -1    0    0  503  502  0.00000000000E+00  0.00000000000E+00  0.17381484724E+01  0.17381484724E+01  0.00000000000E+00 0.  1.
         21   -1    0    0  501  503 -0.00000000000E+00 -0.00000000000E+00 -0.38627400621E+03  0.38627400621E+03  0.00000000000E+00 0.  1.
          3    1    1    2  501    0  0.18268322796E+02  0.17253388658E+02 -0.14491980568E+03  0.14708215771E+03  0.00000000000E+00 0.  1.
         -3    1    1    2    0  502 -0.18268322796E+02 -0.17253388658E+02 -0.23961605206E+03  0.24092999697E+03  0.00000000000E+00 0. -1.
<mgrwt>
<rscale>  2 0.25127894E+02</rscale>
<asrwt>0</asrwt>
<pdfrwt beam="1">  1       21 0.26740752E-03 0.25127894E+02</pdfrwt>
<pdfrwt beam="2">  1       21 0.59426756E-01 0.25127894E+02</pdfrwt>
<totfact> 0.58404489E+07</totfact>
</mgrwt>
</event>
<event>
 4    1  0.7424968E+004  0.6138711E+02  0.7546771E-02  0.1392101E+00
         21   -1    0    0  501  502  0.00000000000E+00  0.00000000000E+00  0.14440925245E+03  0.14440925245E+03  0.00000000000E+00 0.  1.
         21   -1    0    0  502  503 -0.00000000000E+00 -0.00000000000E+00 -0.26397343869E+02  0.26397343869E+02  0.00000000000E+00 0.  1.
          1    1    1    2  501    0  0.35580508157E+02 -0.50024043729E+02  0.49867868587E+02  0.79089707479E+02  0.00000000000E+00 0. -1.
         -1    1    1    2    0  503 -0.35580508157E+02  0.50024043729E+02  0.68144039993E+02  0.91716888839E+02  0.00000000000E+00 0.  1.
<mgrwt>
<rscale>  2 0.61387112E+02</rscale>
<asrwt>0</asrwt>
<pdfrwt beam="1">  1       21 0.22216808E-01 0.61387112E+02</pdfrwt>
<pdfrwt beam="2">  1       21 0.40611299E-02 0.61387112E+02</pdfrwt>
<totfact> 0.67328216E+06</totfact>
</mgrwt>
</event>
<event>
 4    1  0.7424968E+004  0.2431166E+02  0.7546771E-02  0.1671090E+00
         21   -1    0    0  503  502  0.00000000000E+00  0.00000000000E+00  0.15690471125E+03  0.15690471125E+03  0.00000000000E+00 0. -1.
         21   -1    0    0  501  503 -0.00000000000E+00 -0.00000000000E+00 -0.43286424417E+01  0.43286424417E+01  0.00000000000E+00 0. -1.
          5    1    1    2  501    0  0.88582953748E+01 -0.22640388399E+02  0.10532742704E+03  0.10809682452E+03  0.00000000000E+00 0.  1.
         -5    1    1    2    0  502 -0.88582953748E+01  0.22640388399E+02  0.47248641770E+02  0.53136529177E+02  0.00000000000E+00 0. -1.
<mgrwt>
<rscale>  2 0.24311655E+02</rscale>
<asrwt>0</asrwt>
<pdfrwt beam="1">  1       21 0.24139182E-01 0.24311655E+02</pdfrwt>
<pdfrwt beam="2">  1       21 0.66594511E-03 0.24311655E+02</pdfrwt>
<totfact> 0.82380254E+07</totfact>
</mgrwt>
</event>
<event>
 4    1  0.7424968E+004  0.2266253E+02  0.7546771E-02  0.1697040E+00
         21   -1    0    0  503  502  0.00000000000E+00  0.00000000000E+00  0.22897842384E+02  0.22897842384E+02  0.00000000000E+00 0.  1.
         21   -1    0    0  501  503 -0.00000000000E+00 -0.00000000000E+00 -0.23142822693E+02  0.23142822693E+02  0.00000000000E+00 0.  1.
          3    1    1    2  501    0 -0.46412665122E+01 -0.22182174827E+02 -0.41636451697E+01  0.23041835343E+02  0.00000000000E+00 0.  1.
         -3    1    1    2    0  502  0.46412665122E+01  0.22182174827E+02  0.39186648607E+01  0.22998829735E+02  0.00000000000E+00 0. -1.
<mgrwt>
<rscale>  2 0.22662529E+02</rscale>
<asrwt>0</asrwt>
<pdfrwt beam="1">  1       21 0.35227450E-02 0.22662529E+02</pdfrwt>
<pdfrwt beam="2">  1       21 0.35604343E-02 0.22662529E+02</pdfrwt>
<totfact> 0.15179553E+08</totfact>
</mgrwt>
</event>
<event>
 4    1  0.7424968E+004  0.3022732E+02  0.7546771E-02  0.1595589E+00
         21   -1    0    0  501  502  0.00000000000E+00  0.00000000000E+00  0.38722947765E+01  0.38722947765E+01  0.00000000000E+00 0. -1.
         21   -1    0    0  502  503 -0.00000000000E+00 -0.00000000000E+00 -0.24200024462E+03  0.24200024462E+03  0.00000000000E+00 0. -1.
          1    1    1    2  501    0  0.64345651139E+01  0.29534508901E+02 -0.99635159683E+02  0.10411943089E+03  0.00000000000E+00 0. -1.
         -1    1    1    2    0  503 -0.64345651139E+01 -0.29534508901E+02 -0.13849279016E+03  0.14175310850E+03  0.00000000000E+00 0.  1.
<mgrwt>
<rscale>  2 0.30227320E+02</rscale>
<asrwt>0</asrwt>
<pdfrwt beam="1">  1       21 0.59573748E-03 0.30227320E+02</pdfrwt>
<pdfrwt beam="2">  1       21 0.37230818E-01 0.30227320E+02</pdfrwt>
<totfact> 0.46218536E+07</totfact>
</mgrwt>
</event>
<event>
 4    1  0.7424968E+004  0.2583509E+02  0.7546771E-02  0.1649289E+00
         21   -1    0    0  501  502  0.00000000000E+00  0.00000000000E+00  0.25904642181E+03  0.25904642181E+03  0.00000000000E+00 0.  1.
         21   -1    0    0  502  503 -0.00000000000E+00 -0.00000000000E+00 -0.26821269958E+01  0.26821269958E+01  0.00000000000E+00 0.  1.
          1    1    1    2  501    0  0.23824117509E+01  0.25725005196E+02  0.15414310231E+03  0.15629314690E+03  0.00000000000E+00 0. -1.
         -1    1    1    2    0  503 -0.23824117509E+01 -0.25725005196E+02  0.10222119250E+03  0.10543540190E+03  0.00000000000E+00 0.  1.
<mgrwt>
<rscale>  2 0.25835088E+02</rscale>
<asrwt>0</asrwt>
<pdfrwt beam="1">  1       21 0.39853276E-01 0.25835088E+02</pdfrwt>
<pdfrwt beam="2">  1       21 0.41263513E-03 0.25835088E+02</pdfrwt>
<totfact> 0.67721074E+07</totfact>
</mgrwt>
</event>
<event>
 4    1  0.7424968E+004  0.3312034E+02  0.7546771E-02  0.1565955E+00
         21   -1    0    0  501  502  0.00000000000E+00  0.00000000000E+00  0.80773786098E+01  0.80773786098E+01  0.00000000000E+00 0. -1.
         21   -1    0    0  502  503 -0.00000000000E+00 -0.00000000000E+00 -0.15243206794E+03  0.15243206794E+03  0.00000000000E+00 0. -1.
          5    1    1    2  501    0  0.86497787080E-01 -0.33120229534E+02 -0.45672441295E+02  0.56417452797E+02  0.00000000000E+00 0.  1.
         -5    1    1    2    0  503 -0.86497787080E-01  0.33120229534E+02 -0.98682248036E+02  0.10409199375E+03  0.00000000000E+00 0. -1.
<mgrwt>
<rscale>  2 0.33120342E+02</rscale>
<asrwt>0</asrwt>
<pdfrwt beam="1">  1       21 0.12426737E-02 0.33120342E+02</pdfrwt>
<pdfrwt beam="2">  1       21 0.23451086E-01 0.33120342E+02</pdfrwt>
<totfact> 0.36255824E+07</totfact>
</mgrwt>
</event>
<event>
 4    1  0.7424968E+004  0.2179756E+02  0.7546771E-02  0.1711777E+00
         21   -1    0    0  501  502  0.00000000000E+00  0.00000000000E+00  0.79759999680E+03  0.79759999680E+03  0.00000000000E+00 0.  1.
         21   -1    0    0  502  503 -0.00000000000E+00 -0.00000000000E+00 -0.68443607712E+00  0.68443607712E+00  0.00000000000E+00 0.  1.
          4    1    1    2  501    0  0.14318807632E+02 -0.16434884353E+02  0.54217242616E+03  0.54261042504E+03  0.00000000000E+00 0. -1.
         -4    1    1    2    0  503 -0.14318807632E+02  0.16434884353E+02  0.25474313456E+03  0.25567400783E+03  0.00000000000E+00 0.  1.
<mgrwt>
<rscale>  2 0.21797561E+02</rscale>
<asrwt>0</asrwt>
<pdfrwt beam="1">  1       21 0.12270695E+00 0.21797561E+02</pdfrwt>
<pdfrwt beam="2">  1       21 0.10529850E-03 0.21797561E+02</pdfrwt>
<totfact> 0.46258549E+07</totfact>
</mgrwt>
</event>
<event>
 4    1  0.7424968E+004  0.2312298E+02  0.7546771E-02  0.1689524E+00
         21   -1    0    0  503  502  0.00000000000E+00  0.00000000000E+00  0.58944020336E+03  0.58944020336E+03  0.00000000000E+00 0.  1.
         21   -1    0    0  501  503 -0.00000000000E+00 -0.00000000000E+00 -0.96041511549E+00  0.96041511549E+00  0.00000000000E+00 0.  1.
          4    1    1    2  501    0 -0.19106791531E+02  0.13023158389E+02  0.36380239140E+03  0.36453648943E+03  0.00000000000E+00 0.  1.
         -4    1    1    2    0  502  0.19106791531E+02 -0.13023158389E+02  0.22467739685E+03  0.22586412905E+03  0.00000000000E+00 0. -1.
<mgrwt>
<rscale>  2 0.23122979E+02</rscale>
<asrwt>0</asrwt>
<pdfrwt beam="1">  1       21 0.90682819E-01 0.23122979E+02</pdfrwt>
<pdfrwt beam="2">  1       21 0.14775664E-03 0.23122979E+02</pdfrwt>
<totfact> 0.56300022E+07</totfact>
</mgrwt>
</event>
<event>
 4    1  0.7424968E+004  0.2224937E+02  0.7546771E-02  0.1703975E+00
         21   -1    0    0  501  502  0.00000000000E+00  0.00000000000E+00  0.31049688898E+03  0.31049688898E+03  0.00000000000E+00 0. -1.
         21   -1    0    0  502  503 -0.00000000000E+00 -0.00000000000E+00 -0.17214151403E+01  0.17214151403E+01  0.00000000000E+00 0. -1.
          4    1    1    2  501    0 -0.97184637576E+01 -0.20014646123E+02  0.11197147088E+03  0.11416061005E+03  0.00000000000E+00 0.  1.
         -4    1    1    2    0  503  0.97184637576E+01  0.20014646123E+02  0.19680400296E+03  0.19805769407E+03  0.00000000000E+00 0. -1.
<mgrwt>
<rscale>  2 0.22249373E+02</rscale>
<asrwt>0</asrwt>
<pdfrwt beam="1">  1       21 0.47768708E-01 0.22249373E+02</pdfrwt>
<pdfrwt beam="2">  1       21 0.26483334E-03 0.22249373E+02</pdfrwt>
<totfact> 0.88327803E+07</totfact>
</mgrwt>
</event>
<event>
 4    1  0.7424968E+004  0.5817980E+02  0.7546771E-02  0.1405633E+00
         21   -1    0    0  503  502  0.00000000000E+00  0.00000000000E+00  0.35283647202E+02  0.35283647202E+02  0.00000000000E+00 0. -1.
         21   -1    0    0  501  503 -0.00000000000E+00 -0.00000000000E+00 -0.17996334665E+03  0.17996334665E+03  0.00000000000E+00 0. -1.
          4    1    1    2  501    0  0.37533899874E+02  0.44453297826E+02 -0.14588117417E+03  0.15705478759E+03  0.00000000000E+00 0.  1.
         -4    1    1    2    0  502 -0.37533899874E+02 -0.44453297826E+02  0.12014747293E+01  0.58192206255E+02  0.00000000000E+00 0. -1.
<mgrwt>
<rscale>  2 0.58179802E+02</rscale>
<asrwt>0</asrwt>
<pdfrwt beam="1">  1       21 0.54282534E-02 0.58179802E+02</pdfrwt>
<pdfrwt beam="2">  1       21 0.27686669E-01 0.58179802E+02</pdfrwt>
<totfact> 0.27740832E+06</totfact>
</mgrwt>
</event>
<event>
 4    1  0.7424968E+004  0.2987043E+02  0.7546771E-02  0.1599525E+00
         21   -1    0    0  501  502  0.00000000000E+00  0.00000000000E+00  0.10416338507E+02  0.10416338507E+02  0.00000000000E+00 0.  1.
         21   -1    0    0  502  503 -0.00000000000E+00 -0.00000000000E+00 -0.13392798968E+03  0.13392798968E+03  0.00000000000E+00 0.  1.
          3    1    1    2  501    0  0.29748570678E+02 -0.26954151576E+01 -0.18427425045E+02  0.35097189546E+02  0.00000000000E+00 0. -1.
         -3    1    1    2    0  503 -0.29748570678E+02  0.26954151576E+01 -0.10508422613E+03  0.10924713864E+03  0.00000000000E+00 0.  1.
<mgrwt>
<rscale>  2 0.29870432E+02</rscale>
<asrwt>0</asrwt>
<pdfrwt beam="1">  1       21 0.16025137E-02 0.29870432E+02</pdfrwt>
<pdfrwt beam="2">  1       21 0.20604305E-01 0.29870432E+02</pdfrwt>
<totfact> 0.30306878E+07</totfact>
</mgrwt>
</event>
<event>
 4    1  0.7424968E+004  0.2130235E+02  0.7546771E-02  0.1720604E+00
         21   -1    0    0  501  502  0.00000000000E+00  0.00000000000E+00  0.12553909783E+02  0.12553909783E+02  0.00000000000E+00 0.  1.
         21   -1    0    0  502  503 -0.00000000000E+00 -0.00000000000E+00 -0.36611809010E+02  0.36611809010E+02  0.00000000000E+00 0.  1.
          3    1    1    2  501    0  0.71182114945E+01  0.20077878533E+02 -0.14797876543E+02  0.25937758027E+02  0.00000000000E+00 0.  1.
         -3    1    1    2    0  503 -0.71182114945E+01 -0.20077878533E+02 -0.92600226835E+01  0.23227960766E+02  0.00000000000E+00 0. -1.
<mgrwt>
<rscale>  2 0.21302351E+02</rscale>
<asrwt>0</asrwt>
<pdfrwt beam="1">  1       21 0.19313707E-02 0.21302351E+02</pdfrwt>
<pdfrwt beam="2">  1       21 0.56325860E-02 0.21302351E+02</pdfrwt>
<totfact> 0.18264328E+08</totfact>
</mgrwt>
</event>
<event>
 4    1  0.7424968E+004  0.2970517E+02  0.7546771E-02  0.1601371E+00
         21   -1    0    0  503  502  0.00000000000E+00  0.00000000000E+00  0.53810609060E+02  0.53810609060E+02  0.00000000000E+00 0. -1.
         21   -1    0    0  501  503 -0.00000000000E+00 -0.00000000000E+00 -0.16430595326E+02  0.16430595326E+02  0.00000000000E+00 0. -1.
          2    1    1    2  501    0  0.89632390252E+01 -0.28320615765E+02  0.17130450074E+02  0.34290658361E+02  0.00000000000E+00 0.  1.
         -2    1    1    2    0  502 -0.89632390252E+01  0.28320615765E+02  0.20249563660E+02  0.35950546026E+02  0.00000000000E+00 0. -1.
<mgrwt>
<rscale>  2 0.29705167E+02</rscale>
<asrwt>0</asrwt>
<pdfrwt beam="1">  1       21 0.82785551E-02 0.29705167E+02</pdfrwt>
<pdfrwt beam="2">  1       21 0.25277839E-02 0.29705167E+02</pdfrwt>
<totfact> 0.70728862E+07</totfact>
</mgrwt>
</event>
<event>
 4    1  0.7424968E+004  0.4650487E+02  0.7546771E-02  0.1465160E+00
         21   -1    0    0  503  502  0.00000000000E+00  0.00000000000E+00  0.58606451434E+02  0.58606451434E+02  0.00000000000E+00 0.  1.
         21   -1    0    0  501  503 -0.00000000000E+00 -0.00000000000E+00 -0.38375524977E+02  0.38375524977E+02  0.00000000000E+00 0.  1.
          5    1    1    2  501    0 -0.42656473225E+02 -0.18523711626E+02  0.19617007360E+02  0.50473057943E+02  0.00000000000E+00 0. -1.
         -5    1    1    2    0  502  0.42656473225E+02  0.18523711626E+02  0.61391909728E+00  0.46508918468E+02  0.00000000000E+00 0.  1.
<mgrwt>
<rscale>  2 0.46504866E+02</rscale>
<asrwt>0</asrwt>
<pdfrwt beam="1">  1       21 0.90163772E-02 0.46504866E+02</pdfrwt>
<pdfrwt beam="2">  1       21 0.59039269E-02 0.46504866E+02</pdfrwt>
<totfact> 0.17135040E+07</totfact>
</mgrwt>
</event>
<event>
 4    1  0.7424968E+004  0.3187217E+02  0.7546771E-02  0.1578271E+00
         21   -1    0    0  501  502  0.00000000000E+00  0.00000000000E+00  0.53981706800E+03  0.53981706800E+03  0.00000000000E+00 0.  1.
         21   -1    0    0  502  503 -0.00000000000E+00 -0.00000000000E+00 -0.19615698087E+01  0.19615698087E+01  0.00000000000E+00 0.  1.
          5    1    1    2  501    0  0.12137234723E+02 -0.29470715070E+02  0.21430542653E+03  0.21666252873E+03  0.00000000000E+00 0. -1.
         -5    1    1    2    0  503 -0.12137234723E+02  0.29470715070E+02  0.32355007166E+03  0.32511610908E+03  0.00000000000E+00 0.  1.
<mgrwt>
<rscale>  2 0.31872175E+02</rscale>
<asrwt>0</asrwt>
<pdfrwt beam="1">  1       21 0.83048662E-01 0.31872175E+02</pdfrwt>
<pdfrwt beam="2">  1       21 0.30178040E-03 0.31872175E+02</pdfrwt>
<totfact> 0.25616461E+07</totfact>
</mgrwt>
</event>
<event>
 4    1  0.7424968E+004  0.2168923E+02  0.7546771E-02  0.1713683E+00
         21   -1    0    0  503  502  0.00000000000E+00  0.00000000000E+00  0.13727069083E+03  0.13727069083E+03  0.00000000000E+00 0. -1.
         21   -1    0    0  501  503 -0.00000000000E+00 -0.00000000000E+00 -0.35119566512E+01  0.35119566512E+01  0.00000000000E+00 0. -1.
          2    1    1    2  501    0 -0.84315379457E+01  0.19983294665E+02  0.77829345073E+02  0.80794986554E+02  0.00000000000E+00 0.  1.
         -2    1    1    2    0  502  0.84315379457E+01 -0.19983294665E+02  0.55929389107E+02  0.59987660928E+02  0.00000000000E+00 0. -1.
<mgrwt>
<rscale>  2 0.21689235E+02</rscale>
<asrwt>0</asrwt>
<pdfrwt beam="1">  1       21 0.21118564E-01 0.21689235E+02</pdfrwt>
<pdfrwt beam="2">  1       21 0.54030113E-03 0.21689235E+02</pdfrwt>
<totfact> 0.13774969E+08</totfact>
</mgrwt>
</event>
<event>
 4    1  0.7424968E+004  0.2377307E+02  0.7546771E-02  0.1679277E+00
         21   -1    0    0  503  502  0.00000000000E+00  0.00000000000E+00  0.38340630258E+02  0.38340630258E+02  0.00000000000E+00 0. -1.
         21   -1    0    0  501  503 -0.00000000000E+00 -0.00000000000E+00 -0.19856989156E+02  0.19856989156E+02  0.00000000000E+00 0. -1.
          3    1    1    2  501    0 -0.13291209917E+01  0.23735882115E+02  0.24012691423E+02  0.33790057884E+02  0.00000000000E+00 0. -1.
         -3    1    1    2    0  502  0.13291209917E+01 -0.23735882115E+02 -0.55290503207E+01  0.24407561530E+02  0.00000000000E+00 0.  1.
<mgrwt>
<rscale>  2 0.23773066E+02</rscale>
<asrwt>0</asrwt>
<pdfrwt beam="1">  1       21 0.58985585E-02 0.23773066E+02</pdfrwt>
<pdfrwt beam="2">  1       21 0.30549214E-02 0.23773066E+02</pdfrwt>
<totfact> 0.86358770E+07</totfact>
</mgrwt>
</event>
<event>
 4    1  0.7424968E+004  0.2143040E+02  0.7546771E-02  0.1718293E+00
         21   -1    0    0  503  502  0.00000000000E+00  0.00000000000E+00  0.49476021556E+02  0.49476021556E+02  0.00000000000E+00 0. -1.
         21   -1    0    0  501  503 -0.00000000000E+00 -0.00000000000E+00 -0.94838786784E+01  0.94838786784E+01  0.00000000000E+00 0. -1.
          1    1    1    2  501    0  0.16847991280E+02  0.13244134638E+02  0.24291676166E+02  0.32393632761E+02  0.00000000000E+00 0.  1.
         -1    1    1    2    0  502 -0.16847991280E+02 -0.13244134638E+02  0.15700466712E+02  0.26566267473E+02  0.00000000000E+00 0. -1.
<mgrwt>
<rscale>  2 0.21430397E+02</rscale>
<asrwt>0</asrwt>
<pdfrwt beam="1">  1       21 0.76116955E-02 0.21430397E+02</pdfrwt>
<pdfrwt beam="2">  1       21 0.14590583E-02 0.21430397E+02</pdfrwt>
<totfact> 0.17270418E+08</totfact>
</mgrwt>
</event>
<event>
 4    1  0.7424968E+004  0.3067695E+02  0.7546771E-02  0.1590724E+00
         21   -1    0    0  503  502  0.00000000000E+00  0.00000000000E+00  0.98795072828E+02  0.98795072828E+02  0.00000000000E+00 0.  1.
         21   -1    0    0  501  503 -0.00000000000E+00 -0.00000000000E+00 -0.13193147825E+02  0.13193147825E+02  0.00000000000E+00 0.  1.
          5    1    1    2  501    0  0.12729730374E+02 -0.27911093870E+02  0.13277974382E+02  0.33427231415E+02  0.00000000000E+00 0. -1.
         -5    1    1    2    0  502 -0.12729730374E+02  0.27911093870E+02  0.72323950622E+02  0.78560989237E+02  0.00000000000E+00 0.  1.
<mgrwt>
<rscale>  2 0.30676949E+02</rscale>
<asrwt>0</asrwt>
<pdfrwt beam="1">  1       21 0.15199241E-01 0.30676949E+02</pdfrwt>
<pdfrwt beam="2">  1       21 0.20297151E-02 0.30676949E+02</pdfrwt>
<totfact> 0.35977392E+07</totfact>
</mgrwt>
</event>
<event>
 4    1  0.7424968E+004  0.3805059E+02  0.7546771E-02  0.1523067E+00
         21   -1    0    0  501  502  0.00000000000E+00  0.00000000000E+00  0.68529717442E+02  0.68529717442E+02  0.00000000000E+00 0. -1.
         21   -1    0    0  502  503 -0.00000000000E+00 -0.00000000000E+00 -0.21761274860E+02  0.21761274860E+02  0.00000000000E+00 0. -1.
          5    1    1    2  501    0  0.34507147681E+02  0.16034459661E+02  0.31089921132E+02  0.49136853111E+02  0.00000000000E+00 0. -1.
         -5    1    1    2    0  503 -0.34507147681E+02 -0.16034459661E+02  0.15678521449E+02  0.41154139190E+02  0.00000000000E+00 0.  1.
<mgrwt>
<rscale>  2 0.38050587E+02</rscale>
<asrwt>0</asrwt>
<pdfrwt beam="1">  1       21 0.10543033E-01 0.38050587E+02</pdfrwt>
<pdfrwt beam="2">  1       21 0.33478885E-02 0.38050587E+02</pdfrwt>
<totfact> 0.31899304E+07</totfact>
</mgrwt>
</event>
<event>
 4    1  0.7424968E+004  0.2808570E+02  0.7546771E-02  0.1620267E+00
         21   -1    0    0  501  502  0.00000000000E+00  0.00000000000E+00  0.11424371672E+03  0.11424371672E+03  0.00000000000E+00 0. -1.
         21   -1    0    0  502  503 -0.00000000000E+00 -0.00000000000E+00 -0.82275464189E+01  0.82275464189E+01  0.00000000000E+00 0. -1.
          3    1    1    2  501    0 -0.22483429191E+02  0.16831576129E+02  0.28453022088E+02  0.39979757492E+02  0.00000000000E+00 0. -1.
         -3    1    1    2    0  503  0.22483429191E+02 -0.16831576129E+02  0.77563148215E+02  0.82491505649E+02  0.00000000000E+00 0.  1.
<mgrwt>
<rscale>  2 0.28085700E+02</rscale>
<asrwt>0</asrwt>
<pdfrwt beam="1">  1       21 0.17575955E-01 0.28085700E+02</pdfrwt>
<pdfrwt beam="2">  1       21 0.12657765E-02 0.28085700E+02</pdfrwt>
<totfact> 0.56696501E+07</totfact>
</mgrwt>
</event>
<event>
 4    1  0.7424968E+004  0.2165657E+02  0.7546771E-02  0.1714260E+00
         21   -1    0    0  501  502  0.00000000000E+00  0.00000000000E+00  0.20332412818E+02  0.20332412818E+02  0.00000000000E+00 0. -1.
         21   -1    0    0  502  503 -0.00000000000E+00 -0.00000000000E+00 -0.33296215467E+02  0.33296215467E+02  0.00000000000E+00 0. -1.
          2    1    1    2  501    0  0.11951616167E+02  0.18060068014E+02 -0.21344372525E+02  0.30407062077E+02  0.00000000000E+00 0.  1.
         -2    1    1    2    0  503 -0.11951616167E+02 -0.18060068014E+02  0.83805698770E+01  0.23221566208E+02  0.00000000000E+00 0. -1.
<mgrwt>
<rscale>  2 0.21656574E+02</rscale>
<asrwt>0</asrwt>
<pdfrwt beam="1">  1       21 0.31280635E-02 0.21656574E+02</pdfrwt>
<pdfrwt beam="2">  1       21 0.51224946E-02 0.21656574E+02</pdfrwt>
<totfact> 0.10153242E+08</totfact>
</mgrwt>
</event>
<event>
 4    1  0.7424968E+004  0.2893951E+02  0.7546771E-02  0.1610116E+00
         21   -1    0    0  503  502  0.00000000000E+00  0.00000000000E+00  0.96820931011E+02  0.96820931011E+02  0.00000000000E+00 0.  1.
         21   -1    0    0  501  503 -0.00000000000E+00 -0.00000000000E+00 -0.91059898821E+01  0.91059898821E+01  0.00000000000E+00 0.  1.
          2    1    1    2  501    0 -0.28060968053E+02 -0.70765456106E+01  0.32004749875E+02  0.43148574025E+02  0.00000000000E+00 0. -1.
         -2    1    1    2    0  502  0.28060968053E+02  0.70765456106E+01  0.55710191255E+02  0.62778346868E+02  0.00000000000E+00 0.  1.
<mgrwt>
<rscale>  2 0.28939513E+02</rscale>
<asrwt>0</asrwt>
<pdfrwt beam="1">  1       21 0.14895527E-01 0.28939513E+02</pdfrwt>
<pdfrwt beam="2">  1       21 0.14009216E-02 0.28939513E+02</pdfrwt>
<totfact> 0.65100429E+07</totfact>
</mgrwt>
</event>
<event>
 4    1  0.7424968E+004  0.2118931E+02  0.7546771E-02  0.1722662E+00
         21   -1    0    0  501  502  0.00000000000E+00  0.00000000000E+00  0.42095397290E+01  0.42095397290E+01  0.00000000000E+00 0. -1.
         21   -1    0    0  502  503 -0.00000000000E+00 -0.00000000000E+00 -0.11101025853E+03  0.11101025853E+03  0.00000000000E+00 0. -1.
          2    1    1    2  501    0 -0.82289705358E+01 -0.19526161993E+02 -0.64805570237E+02  0.68181734298E+02  0.00000000000E+00 0. -1.
         -2    1    1    2    0  503  0.82289705358E+01  0.19526161993E+02 -0.41995148566E+02  0.47038063962E+02  0.00000000000E+00 0.  1.
<mgrwt>
<rscale>  2 0.21189312E+02</rscale>
<asrwt>0</asrwt>
<pdfrwt beam="1">  1       21 0.64762161E-03 0.21189312E+02</pdfrwt>
<pdfrwt beam="2">  1       21 0.17078498E-01 0.21189312E+02</pdfrwt>
<totfact> 0.15118708E+08</totfact>
</mgrwt>
</event>
<event>
 4    1  0.7424968E+004  0.2244779E+02  0.7546771E-02  0.1700621E+00
         21   -1    0    0  501  502  0.00000000000E+00  0.00000000000E+00  0.74967462913E+01  0.74967462913E+01  0.00000000000E+00 0. -1.
         21   -1    0    0  502  503 -0.00000000000E+00 -0.00000000000E+00 -0.67219195419E+02  0.67219195419E+02  0.00000000000E+00 0. -1.
          2    1    1    2  501    0 -0.14241908354E+02 -0.17351403382E+02 -0.30108628523E+02  0.37555727452E+02  0.00000000000E+00 0.  1.
         -2    1    1    2    0  503  0.14241908354E+02  0.17351403382E+02 -0.29613820605E+02  0.37160214258E+02  0.00000000000E+00 0. -1.
<mgrwt>
<rscale>  2 0.22447787E+02</rscale>
<asrwt>0</asrwt>
<pdfrwt beam="1">  1       21 0.11533456E-02 0.22447787E+02</pdfrwt>
<pdfrwt beam="2">  1       21 0.10341415E-01 0.22447787E+02</pdfrwt>
<totfact> 0.15122630E+08</totfact>
</mgrwt>
</event>
<event>
 4    1  0.7424968E+004  0.2932810E+02  0.7546771E-02  0.1605637E+00
         21   -1    0    0  503  502  0.00000000000E+00  0.00000000000E+00  0.87219382478E+00  0.87219382478E+00  0.00000000000E+00 0. -1.
         21   -1    0    0  501  503 -0.00000000000E+00 -0.00000000000E+00 -0.10151713718E+04  0.10151713718E+04  0.00000000000E+00 0. -1.
          3    1    1    2  501    0 -0.26764661992E+02  0.11991262188E+02 -0.59300534406E+03  0.59373013700E+03  0.00000000000E+00 0. -1.
         -3    1    1    2    0  502  0.26764661992E+02 -0.11991262188E+02 -0.42129383392E+03  0.42231342863E+03  0.00000000000E+00 0.  1.
<mgrwt>
<rscale>  2 0.29328101E+02</rscale>
<asrwt>0</asrwt>
<pdfrwt beam="1">  1       21 0.13418354E-03 0.29328101E+02</pdfrwt>
<pdfrwt beam="2">  1       21 0.15618036E+00 0.29328101E+02</pdfrwt>
<totfact> 0.19562819E+07</totfact>
</mgrwt>
</event>
<event>
 4    1  0.7424968E+004  0.2287472E+02  0.7546771E-02  0.1693549E+00
         21   -1    0    0  501  502  0.00000000000E+00  0.00000000000E+00  0.48746353343E+02  0.48746353343E+02  0.00000000000E+00 0.  1.
         21   -1    0    0  502  503 -0.00000000000E+00 -0.00000000000E+00 -0.23580702130E+02  0.23580702130E+02  0.00000000000E+00 0.  1.
          4    1    1    2  501    0  0.10236466024E+02 -0.20456478022E+02  0.39275064312E+02  0.45450890052E+02  0.00000000000E+00 0. -1.
         -4    1    1    2    0  503 -0.10236466024E+02  0.20456478022E+02 -0.14109413099E+02  0.26876165421E+02  0.00000000000E+00 0.  1.
<mgrwt>
<rscale>  2 0.22874718E+02</rscale>
<asrwt>0</asrwt>
<pdfrwt beam="1">  1       21 0.74994390E-02 0.22874718E+02</pdfrwt>
<pdfrwt beam="2">  1       21 0.36278003E-02 0.22874718E+02</pdfrwt>
<totfact> 0.44309471E+07</totfact>
</mgrwt>
</event>
<event>
 4    1  0.7424968E+004  0.2736522E+02  0.7546771E-02  0.1629183E+00
         21   -1    0    0  501  502  0.00000000000E+00  0.00000000000E+00  0.20535110410E+03  0.20535110410E+03  0.00000000000E+00 0.  1.
         21   -1    0    0  502  503 -0.00000000000E+00 -0.00000000000E+00 -0.37163982821E+01  0.37163982821E+01  0.00000000000E+00 0.  1.
          4    1    1    2  501    0 -0.27364989214E+02 -0.11238794121E+00  0.11513215309E+03  0.11833962963E+03  0.00000000000E+00 0. -1.
         -4    1    1    2    0  503  0.27364989214E+02  0.11238794121E+00  0.86502552727E+02  0.90727872752E+02  0.00000000000E+00 0.  1.
<mgrwt>
<rscale>  2 0.27365220E+02</rscale>
<asrwt>0</asrwt>
<pdfrwt beam="1">  1       21 0.31592469E-01 0.27365220E+02</pdfrwt>
<pdfrwt beam="2">  1       21 0.57175374E-03 0.27365220E+02</pdfrwt>
<totfact> 0.65323619E+07</totfact>
</mgrwt>
</event>
<event>
 4    1  0.7424968E+004  0.5187181E+02  0.7546771E-02  0.1435499E+00
         21   -1    0    0  503  502  0.00000000000E+00  0.00000000000E+00  0.47186506061E+01  0.47186506061E+01  0.00000000000E+00 0.  1.
         21   -1    0    0  501  503 -0.00000000000E+00 -0.00000000000E+00 -0.66854628986E+03  0.66854628986E+03  0.00000000000E+00 0.  1.
          1    1    1    2  501    0 -0.48690742980E+02  0.17885651503E+02 -0.46101124607E+03  0.46392030995E+03  0.00000000000E+00 0.  1.
         -1    1    1    2    0  502  0.48690742980E+02 -0.17885651503E+02 -0.20281639319E+03  0.20934463052E+03  0.00000000000E+00 0. -1.
<mgrwt>
<rscale>  2 0.51871813E+02</rscale>
<asrwt>0</asrwt>
<pdfrwt beam="1">  1       21 0.72594647E-03 0.51871813E+02</pdfrwt>
<pdfrwt beam="2">  1       21 0.10285324E+00 0.51871813E+02</pdfrwt>
<totfact> 0.45351624E+06</totfact>
</mgrwt>
</event>
<event>
 4    1  0.7424968E+004  0.2513549E+02  0.7546771E-02  0.1659063E+00
         21   -1    0    0  501  502  0.00000000000E+00  0.00000000000E+00  0.11261098318E+02  0.11261098318E+02  0.00000000000E+00 0. -1.
         21   -1    0    0  502  503 -0.00000000000E+00 -0.00000000000E+00 -0.64498173078E+02  0.64498173078E+02  0.00000000000E+00 0. -1.
          3    1    1    2  501    0  0.27188995649E+01 -0.24988005282E+02 -0.40283884654E+02  0.47482461874E+02  0.00000000000E+00 0.  1.
         -3    1    1    2    0  503 -0.27188995649E+01  0.24988005282E+02 -0.12953190106E+02  0.28276809521E+02  0.00000000000E+00 0. -1.
<mgrwt>
<rscale>  2 0.25135489E+02</rscale>
<asrwt>0</asrwt>
<pdfrwt beam="1">  1       21 0.17324766E-02 0.25135489E+02</pdfrwt>
<pdfrwt beam="2">  1       21 0.99227961E-02 0.25135489E+02</pdfrwt>
<totfact> 0.90135467E+07</totfact>
</mgrwt>
</event>
<event>
 4    1  0.7424968E+004  0.2572119E+02  0.7546771E-02  0.1650854E+00
         21   -1    0    0  503  502  0.00000000000E+00  0.00000000000E+00  0.99310334725E+03  0.99310334725E+03  0.00000000000E+00 0.  1.
         21   -1    0    0  501  503 -0.00000000000E+00 -0.00000000000E+00 -0.69416548932E+00  0.69416548932E+00  0.00000000000E+00 0.  1.
          3    1    1    2  501    0  0.21705183220E+02  0.13800887743E+02  0.59598621319E+03  0.59654098417E+03  0.00000000000E+00 0.  1.
         -3    1    1    2    0  502 -0.21705183220E+02 -0.13800887743E+02  0.39642296857E+03  0.39725652857E+03  0.00000000000E+00 0. -1.
<mgrwt>
<rscale>  2 0.25721187E+02</rscale>
<asrwt>0</asrwt>
<pdfrwt beam="1">  1       21 0.15278399E+00 0.25721187E+02</pdfrwt>
<pdfrwt beam="2">  1       21 0.10679549E-03 0.25721187E+02</pdfrwt>
<totfact> 0.28072536E+07</totfact>
</mgrwt>
</event>
<event>
 4    1  0.7424968E+004  0.2504471E+02  0.7546771E-02  0.1660360E+00
         21   -1    0    0  503  502  0.00000000000E+00  0.00000000000E+00  0.83981581397E+01  0.83981581397E+01  0.00000000000E+00 0.  1.
         21   -1    0    0  501  503 -0.00000000000E+00 -0.00000000000E+00 -0.12932583062E+03  0.12932583062E+03  0.00000000000E+00 0.  1.
          4    1    1    2  501    0  0.21532279541E+02 -0.12790567737E+02 -0.15704302760E+02  0.29561170654E+02  0.00000000000E+00 0. -1.
         -4    1    1    2    0  502 -0.21532279541E+02  0.12790567737E+02 -0.10522336972E+03  0.10816281810E+03  0.00000000000E+00 0.  1.
<mgrwt>
<rscale>  2 0.25044714E+02</rscale>
<asrwt>0</asrwt>
<pdfrwt beam="1">  1       21 0.12920245E-02 0.25044714E+02</pdfrwt>
<pdfrwt beam="2">  1       21 0.19896280E-01 0.25044714E+02</pdfrwt>
<totfact> 0.43113995E+07</totfact>
</mgrwt>
</event>
<event>
 4    1  0.7424968E+004  0.2088521E+02  0.7546771E-02  0.1728277E+00
         21   -1    0    0  503  502  0.00000000000E+00  0.00000000000E+00  0.63399749100E+00  0.63399749100E+00  0.00000000000E+00 0. -1.
         21   -1    0    0  501  503 -0.00000000000E+00 -0.00000000000E+00 -0.70026999555E+03  0.70026999555E+03  0.00000000000E+00 0. -1.
          2    1    1    2  501    0 -0.18945647511E+02  0.87894417662E+01 -0.30343337018E+03  0.30415128141E+03  0.00000000000E+00 0. -1.
         -2    1    1    2    0  502  0.18945647511E+02 -0.87894417662E+01 -0.39620262788E+03  0.39675271163E+03  0.00000000000E+00 0.  1.
<mgrwt>
<rscale>  2 0.20885206E+02</rscale>
<asrwt>0</asrwt>
<pdfrwt beam="1">  1       21 0.97537435E-04 0.20885206E+02</pdfrwt>
<pdfrwt beam="2">  1       21 0.10773455E+00 0.20885206E+02</pdfrwt>
<totfact> 0.68328539E+07</totfact>
</mgrwt>
</event>
<event>
 4    1  0.7424968E+004  0.3921025E+02  0.7546771E-02  0.1514105E+00
         21   -1    0    0  501  502  0.00000000000E+00  0.00000000000E+00  0.57762459522E+00  0.57762459522E+00  0.00000000000E+00 0.  1.
         21   -1    0    0  502  503 -0.00000000000E+00 -0.00000000000E+00 -0.26617119000E+04  0.26617119000E+04  0.00000000000E+00 0.  1.
          4    1    1    2  501    0  0.94755627762E+01 -0.38048096002E+02 -0.13360789065E+04  0.13366541393E+04  0.00000000000E+00 0. -1.
         -4    1    1    2    0  503 -0.94755627762E+01  0.38048096002E+02 -0.13250553689E+04  0.13256353852E+04  0.00000000000E+00 0.  1.
<mgrwt>
<rscale>  2 0.39210252E+02</rscale>
<asrwt>0</asrwt>
<pdfrwt beam="1">  1       21 0.88864605E-04 0.39210252E+02</pdfrwt>
<pdfrwt beam="2">  1       21 0.40949744E+00 0.39210252E+02</pdfrwt>
<totfact> 0.14860377E+06</totfact>
</mgrwt>
</event>
<event>
 4    1  0.7424968E+004  0.2119723E+02  0.7546771E-02  0.1722517E+00
         21   -1    0    0  503  502  0.00000000000E+00  0.00000000000E+00  0.47234856260E+02  0.47234856260E+02  0.00000000000E+00 0.  1.
         21   -1    0    0  501  503 -0.00000000000E+00 -0.00000000000E+00 -0.11423935290E+02  0.11423935290E+02  0.00000000000E+00 0.  1.
          3    1    1    2  501    0  0.14751414706E+01  0.21145843687E+02  0.59084726919E+01  0.22005290208E+02  0.00000000000E+00 0. -1.
         -3    1    1    2    0  502 -0.14751414706E+01 -0.21145843687E+02  0.29902448279E+02  0.36653501342E+02  0.00000000000E+00 0.  1.
<mgrwt>
<rscale>  2 0.21197234E+02</rscale>
<asrwt>0</asrwt>
<pdfrwt beam="1">  1       21 0.72669008E-02 0.21197234E+02</pdfrwt>
<pdfrwt beam="2">  1       21 0.17575285E-02 0.21197234E+02</pdfrwt>
<totfact> 0.13985382E+08</totfact>
</mgrwt>
</event>
<event>
 4    1  0.7424968E+004  0.2672365E+02  0.7546771E-02  0.1637411E+00
         21   -1    0    0  503  502  0.00000000000E+00  0.00000000000E+00  0.25768422545E+01  0.25768422545E+01  0.00000000000E+00 0.  1.
         21   -1    0    0  501  503 -0.00000000000E+00 -0.00000000000E+00 -0.30510833593E+03  0.30510833593E+03  0.00000000000E+00 0.  1.
          5    1    1    2  501    0 -0.26384432296E+02 -0.42444221215E+01 -0.10468989698E+03  0.10804687833E+03  0.00000000000E+00 0. -1.
         -5    1    1    2    0  502  0.26384432296E+02  0.42444221215E+01 -0.19784159669E+03  0.19963829985E+03  0.00000000000E+00 0.  1.
<mgrwt>
<rscale>  2 0.26723648E+02</rscale>
<asrwt>0</asrwt>
<pdfrwt beam="1">  1       21 0.39643720E-03 0.26723648E+02</pdfrwt>
<pdfrwt beam="2">  1       21 0.46939752E-01 0.26723648E+02</pdfrwt>
<totfact> 0.52907147E+07</totfact>
</mgrwt>
</event>
<event>
 4    1  0.7424968E+004  0.3452125E+02  0.7546771E-02  0.1552893E+00
         21   -1    0    0  503  502  0.00000000000E+00  0.00000000000E+00  0.76331718046E+03  0.76331718046E+03  0.00000000000E+00 0.  1.
         21   -1    0    0  501  503 -0.00000000000E+00 -0.00000000000E+00 -0.16644800573E+01  0.16644800573E+01  0.00000000000E+00 0.  1.
          2    1    1    2  501    0  0.79571508288E+00 -0.34512081543E+02  0.47608796010E+03  0.47733789152E+03  0.00000000000E+00 0. -1.
         -2    1    1    2    0  502 -0.79571508288E+00  0.34512081543E+02  0.28556474031E+03  0.28764376900E+03  0.00000000000E+00 0.  1.
<mgrwt>
<rscale>  2 0.34521253E+02</rscale>
<asrwt>0</asrwt>
<pdfrwt beam="1">  1       21 0.11743313E+00 0.34521253E+02</pdfrwt>
<pdfrwt beam="2">  1       21 0.25607447E-03 0.34521253E+02</pdfrwt>
<totfact> 0.15306559E+07</totfact>
</mgrwt>
</event>
<event>
 4    1  0.7424968E+004  0.2207480E+02  0.7546771E-02  0.1706962E+00
         21   -1    0    0  503  502  0.00000000000E+00  0.00000000000E+00  0.31740664680E+00  0.31740664680E+00  0.00000000000E+00 0.  1.
         21   -1    0    0  501  503 -0.00000000000E+00 -0.00000000000E+00 -0.15431494951E+04  0.15431494951E+04  0.00000000000E+00 0.  1.
          3    1    1    2  501    0 -0.14343215607E+02  0.16780013994E+02 -0.71617991587E+03  0.71652004061E+03  0.00000000000E+00 0. -1.
         -3    1    1    2    0  502  0.14343215607E+02 -0.16780013994E+02 -0.82665217261E+03  0.82694686116E+03  0.00000000000E+00 0.  1.
<mgrwt>
<rscale>  2 0.22074798E+02</rscale>
<asrwt>0</asrwt>
<pdfrwt beam="1">  1       21 0.48831850E-04 0.22074798E+02</pdfrwt>
<pdfrwt beam="2">  1       21 0.23740733E+00 0.22074798E+02</pdfrwt>
<totfact> 0.27014769E+07</totfact>
</mgrwt>
</event>
<event>
 4    1  0.7424968E+004  0.4074570E+02  0.7546771E-02  0.1502795E+00
         21   -1    0    0  503  502  0.00000000000E+00  0.00000000000E+00  0.25765934128E+02  0.25765934128E+02  0.00000000000E+00 0. -1.
         21   -1    0    0  501  503 -0.00000000000E+00 -0.00000000000E+00 -0.70663053206E+02  0.70663053206E+02  0.00000000000E+00 0. -1.
          4    1    1    2  501    0 -0.38055895303E+02 -0.14558880164E+02 -0.81339681282E+01  0.41549652182E+02  0.00000000000E+00 0.  1.
         -4    1    1    2    0  502  0.38055895303E+02  0.14558880164E+02 -0.36763150950E+02  0.54879335152E+02  0.00000000000E+00 0. -1.
<mgrwt>
<rscale>  2 0.40745701E+02</rscale>
<asrwt>0</asrwt>
<pdfrwt beam="1">  1       21 0.39639898E-02 0.40745701E+02</pdfrwt>
<pdfrwt beam="2">  1       21 0.10871239E-01 0.40745701E+02</pdfrwt>
<totfact> 0.23385195E+07</totfact>
</mgrwt>
</event>
<event>
 4    1  0.7424968E+004  0.2115424E+02  0.7546771E-02  0.1723303E+00
         21   -1    0    0  503  502  0.00000000000E+00  0.00000000000E+00  0.43510353303E+03  0.43510353303E+03  0.00000000000E+00 0. -1.
         21   -1    0    0  501  503 -0.00000000000E+00 -0.00000000000E+00 -0.10497927677E+01  0.10497927677E+01  0.00000000000E+00 0. -1.
          5    1    1    2  501    0 -0.92400491386E+01 -0.19029539658E+02  0.18596535863E+03  0.18716467749E+03  0.00000000000E+00 0.  1.
         -5    1    1    2    0  502  0.92400491386E+01  0.19029539658E+02  0.24808838163E+03  0.24898864831E+03  0.00000000000E+00 0. -1.
<mgrwt>
<rscale>  2 0.21154240E+02</rscale>
<asrwt>0</asrwt>
<pdfrwt beam="1">  1       21 0.66938861E-01 0.21154240E+02</pdfrwt>
<pdfrwt beam="2">  1       21 0.16150693E-03 0.21154240E+02</pdfrwt>
<totfact> 0.91330779E+07</totfact>
</mgrwt>
</event>
<event>
 4    1  0.7424968E+004  0.2260372E+02  0.7546771E-02  0.1698015E+00
         21   -1    0    0  503  502  0.00000000000E+00  0.00000000000E+00  0.18859490774E+03  0.18859490774E+03  0.00000000000E+00 0.  1.
         21   -1    0    0  501  503 -0.00000000000E+00 -0.00000000000E+00 -0.27900915921E+01  0.27900915921E+01  0.00000000000E+00 0.  1.
          5    1    1    2  501    0  0.75100175196E+00  0.22591244469E+02  0.76601746435E+02  0.79867113928E+02  0.00000000000E+00 0.  1.
         -5    1    1    2    0  502 -0.75100175196E+00 -0.22591244469E+02  0.10920306971E+03  0.11151788540E+03  0.00000000000E+00 0. -1.
<mgrwt>
<rscale>  2 0.22603724E+02</rscale>
<asrwt>0</asrwt>
<pdfrwt beam="1">  1       21 0.29014591E-01 0.22603724E+02</pdfrwt>
<pdfrwt beam="2">  1       21 0.42924501E-03 0.22603724E+02</pdfrwt>
<totfact> 0.11113385E+08</totfact>
</mgrwt>
</event>
<event>
 4    1  0.7424968E+004  0.2009884E+02  0.7546771E-02  0.1743370E+00
         21   -1    0    0  501  502  0.00000000000E+00  0.00000000000E+00  0.54492208167E+00  0.54492208167E+00  0.00000000000E+00 0.  1.
         21   -1    0    0  502  503 -0.00000000000E+00 -0.00000000000E+00 -0.90622791915E+03  0.90622791915E+03  0.00000000000E+00 0.  1.
          1    1    1    2  501    0 -0.19598307706E+02 -0.44575590896E+01 -0.25943723231E+03  0.26021460568E+03  0.00000000000E+00 0.  1.
         -1    1    1    2    0  503  0.19598307706E+02  0.44575590896E+01 -0.64624576475E+03  0.64655823555E+03  0.00000000000E+00 0. -1.
<mgrwt>
<rscale>  2 0.20098843E+02</rscale>
<asrwt>0</asrwt>
<pdfrwt beam="1">  1       21 0.83834917E-04 0.20098843E+02</pdfrwt>
<pdfrwt beam="2">  1       21 0.13941843E+00 0.20098843E+02</pdfrwt>
<totfact> 0.46858835E+07</totfact>
</mgrwt>
</event>
<event>
 4    1  0.7424968E+004  0.4692875E+02  0.7546771E-02  0.1462648E+00
         21   -1    0    0  503  502  0.00000000000E+00  0.00000000000E+00  0.10641380522E+02  0.10641380522E+02  0.00000000000E+00 0.  1.
         21   -1    0    0  501  503 -0.00000000000E+00 -0.00000000000E+00 -0.25795309477E+03  0.25795309477E+03  0.00000000000E+00 0.  1.
          5    1    1    2  501    0  0.44587885177E+02  0.14636548044E+02 -0.63943360953E+02  0.79316211793E+02  0.00000000000E+00 0.  1.
         -5    1    1    2    0  502 -0.44587885177E+02 -0.14636548044E+02 -0.18336835330E+03  0.18927826350E+03  0.00000000000E+00 0. -1.
<mgrwt>
<rscale>  2 0.46928755E+02</rscale>
<asrwt>0</asrwt>
<pdfrwt beam="1">  1       21 0.16371356E-02 0.46928755E+02</pdfrwt>
<pdfrwt beam="2">  1       21 0.39685088E-01 0.46928755E+02</pdfrwt>
<totfact> 0.93688391E+06</totfact>
</mgrwt>
</event>
<event>
 4    1  0.7424968E+004  0.2228322E+02  0.7546771E-02  0.1703399E+00
         21   -1    0    0  501  502  0.00000000000E+00  0.00000000000E+00  0.16691594810E+02  0.16691594810E+02  0.00000000000E+00 0. -1.
         21   -1    0    0  502  503 -0.00000000000E+00 -0.00000000000E+00 -0.31016539883E+02  0.31016539883E+02  0.00000000000E+00 0. -1.
          3    1    1    2  501    0 -0.14884151013E+02  0.16583245727E+02 -0.23384042923E+01  0.22405582448E+02  0.00000000000E+00 0.  1.
         -3    1    1    2    0  503  0.14884151013E+02 -0.16583245727E+02 -0.11986540780E+02  0.25302552245E+02  0.00000000000E+00 0. -1.
<mgrwt>
<rscale>  2 0.22283222E+02</rscale>
<asrwt>0</asrwt>
<pdfrwt beam="1">  1       21 0.25679377E-02 0.22283222E+02</pdfrwt>
<pdfrwt beam="2">  1       21 0.47717753E-02 0.22283222E+02</pdfrwt>
<totfact> 0.15565179E+08</totfact>
</mgrwt>
</event>
<event>
 4    1  0.7424968E+004  0.2112479E+02  0.7546771E-02  0.1723843E+00
         21   -1    0    0  501  502  0.00000000000E+00  0.00000000000E+00  0.73416852607E+01  0.73416852607E+01  0.00000000000E+00 0.  1.
         21   -1    0    0  502  503 -0.00000000000E+00 -0.00000000000E+00 -0.60793776579E+02  0.60793776579E+02  0.00000000000E+00 0.  1.
          3    1    1    2  501    0  0.20203826852E+02  0.61694525528E+01 -0.27158768374E+02  0.34407200756E+02  0.00000000000E+00 0. -1.
         -3    1    1    2    0  503 -0.20203826852E+02 -0.61694525528E+01 -0.26293322945E+02  0.33728261084E+02  0.00000000000E+00 0.  1.
<mgrwt>
<rscale>  2 0.21124790E+02</rscale>
<asrwt>0</asrwt>
<pdfrwt beam="1">  1       21 0.11294900E-02 0.21124790E+02</pdfrwt>
<pdfrwt beam="2">  1       21 0.93528887E-02 0.21124790E+02</pdfrwt>
<totfact> 0.18077053E+08</totfact>
</mgrwt>
</event>
<event>
 4    1  0.7424968E+004  0.2227515E+02  0.7546771E-02  0.1703536E+00
         21   -1    0    0  501  502  0.00000000000E+00  0.00000000000E+00  0.16676050902E+01  0.16676050902E+01  0.00000000000E+00 0.  1.
         21   -1    0    0  502  503 -0.00000000000E+00 -0.00000000000E+00 -0.30139561908E+03  0.30139561908E+03  0.00000000000E+00 0.  1.
          1    1    1    2  501    0 -0.47195674929E+01  0.21769432607E+02 -0.16699847132E+03  0.16847751167E+03  0.00000000000E+00 0.  1.
         -1    1    1    2    0  503  0.47195674929E+01 -0.21769432607E+02 -0.13272954266E+03  0.13458571250E+03  0.00000000000E+00 0. -1.
<mgrwt>
<rscale>  2 0.22275155E+02</rscale>
<asrwt>0</asrwt>
<pdfrwt beam="1">  1       21 0.25655451E-03 0.22275155E+02</pdfrwt>
<pdfrwt beam="2">  1       21 0.46368579E-01 0.22275155E+02</pdfrwt>
<totfact> 0.97971304E+07</totfact>
</mgrwt>
</event>
<event>
 4    1  0.7424968E+004  0.2001812E+02  0.7546771E-02  0.1744968E+00
         21   -1    0    0  501  502  0.00000000000E+00  0.00000000000E+00  0.33509148875E+01  0.33509148875E+01  0.00000000000E+00 0.  1.
         21   -1    0    0  502  503 -0.00000000000E+00 -0.00000000000E+00 -0.16400624847E+03  0.16400624847E+03  0.00000000000E+00 0.  1.
          3    1    1    2  501    0  0.36446710614E+01 -0.19683530170E+02 -0.36779388671E+02  0.41874197522E+02  0.00000000000E+00 0.  1.
         -3    1    1    2    0  503 -0.36446710614E+01  0.19683530170E+02 -0.12387594492E+03  0.12548296584E+03  0.00000000000E+00 0. -1.
<mgrwt>
<rscale>  2 0.20018116E+02</rscale>
<asrwt>0</asrwt>
<pdfrwt beam="1">  1       21 0.51552534E-03 0.20018116E+02</pdfrwt>
<pdfrwt beam="2">  1       21 0.25231732E-01 0.20018116E+02</pdfrwt>
<totfact> 0.10541024E+08</totfact>
</mgrwt>
</event>
<event>
 4    1  0.7424968E+004  0.3806112E+02  0.7546771E-02  0.1522984E+00
         21   -1    0    0  503  502  0.00000000000E+00  0.00000000000E+00  0.72658076356E+01  0.72658076356E+01  0.00000000000E+00 0.  1.
         21   -1    0    0  501  503 -0.00000000000E+00 -0.00000000000E+00 -0.23916950671E+03  0.23916950671E+03  0.00000000000E+00 0.  1.
          3    1    1    2  501    0 -0.23027954384E+02  0.30304490010E+02 -0.65693262391E+02  0.75922681206E+02  0.00000000000E+00 0.  1.
         -3    1    1    2    0  502  0.23027954384E+02 -0.30304490010E+02 -0.16621043669E+03  0.17051263314E+03  0.00000000000E+00 0. -1.
<mgrwt>
<rscale>  2 0.38061119E+02</rscale>
<asrwt>0</asrwt>
<pdfrwt beam="1">  1       21 0.11178165E-02 0.38061119E+02</pdfrwt>
<pdfrwt beam="2">  1       21 0.36795310E-01 0.38061119E+02</pdfrwt>
<totfact> 0.18999303E+07</totfact>
</mgrwt>
</event>
<event>
 4    1  0.7424968E+004  0.2740752E+02  0.7546771E-02  0.1628650E+00
         21   -1    0    0  503  502  0.00000000000E+00  0.00000000000E+00  0.16491851167E+02  0.16491851167E+02  0.00000000000E+00 0. -1.
         21   -1    0    0  501  503 -0.00000000000E+00 -0.00000000000E+00 -0.50467696478E+02  0.50467696478E+02  0.00000000000E+00 0. -1.
          3    1    1    2  501    0 -0.24761731497E+02  0.11748563337E+02 -0.65349074339E+01  0.28175824786E+02  0.00000000000E+00 0.  1.
         -3    1    1    2    0  502  0.24761731497E+02 -0.11748563337E+02 -0.27440937877E+02  0.38783722859E+02  0.00000000000E+00 0. -1.
<mgrwt>
<rscale>  2 0.27407519E+02</rscale>
<asrwt>0</asrwt>
<pdfrwt beam="1">  1       21 0.25372078E-02 0.27407519E+02</pdfrwt>
<pdfrwt beam="2">  1       21 0.77642611E-02 0.27407519E+02</pdfrwt>
<totfact> 0.76616413E+07</totfact>
</mgrwt>
</event>
<event>
 4    1  0.7424968E+004  0.2020753E+02  0.7546771E-02  0.1741232E+00
         21   -1    0    0  501  502  0.00000000000E+00  0.00000000000E+00  0.14840764427E+01  0.14840764427E+01  0.00000000000E+00 0.  1.
         21   -1    0    0  502  503 -0.00000000000E+00 -0.00000000000E+00 -0.33920277416E+03  0.33920277416E+03  0.00000000000E+00 0.  1.
          1    1    1    2  501    0 -0.92528406570E+01  0.17964661641E+02 -0.94836887895E+02  0.96965867365E+02  0.00000000000E+00 0.  1.
         -1    1    1    2    0  503  0.92528406570E+01 -0.17964661641E+02 -0.24288180983E+03  0.24372098324E+03  0.00000000000E+00 0. -1.
<mgrwt>
<rscale>  2 0.20207527E+02</rscale>
<asrwt>0</asrwt>
<pdfrwt beam="1">  1       21 0.22831935E-03 0.20207527E+02</pdfrwt>
<pdfrwt beam="2">  1       21 0.52185066E-01 0.20207527E+02</pdfrwt>
<totfact> 0.89934182E+07</totfact>
</mgrwt>
</event>
<event>
 4    1  0.7424968E+004  0.2386453E+02  0.7546771E-02  0.1677868E+00
         21   -1    0    0  503  502  0.00000000000E+00  0.00000000000E+00  0.24389799696E+01  0.24389799696E+01  0.00000000000E+00 0. -1.
         21   -1    0    0  501  503 -0.00000000000E+00 -0.00000000000E+00 -0.24035757264E+03  0.24035757264E+03  0.00000000000E+00 0. -1.
          4    1    1    2  501    0  0.23186721634E+02 -0.56472595578E+01 -0.13945627615E+03  0.14148345683E+03  0.00000000000E+00 0. -1.
         -4    1    1    2    0  502 -0.23186721634E+02  0.56472595578E+01 -0.98462316527E+02  0.10131309578E+03  0.00000000000E+00 0.  1.
<mgrwt>
<rscale>  2 0.23864526E+02</rscale>
<asrwt>0</asrwt>
<pdfrwt beam="1">  1       21 0.37522772E-03 0.23864526E+02</pdfrwt>
<pdfrwt beam="2">  1       21 0.36978085E-01 0.23864526E+02</pdfrwt>
<totfact> 0.87939851E+07</totfact>
</mgrwt>
</event>
<event>
 4    1  0.7424968E+004  0.2156977E+02  0.7546771E-02  0.1715801E+00
         21   -1    0    0  503  502  0.00000000000E+00  0.00000000000E+00  0.52984128174E+01  0.52984128174E+01  0.00000000000E+00 0.  1.
         21   -1    0    0  501  503 -0.00000000000E+00 -0.00000000000E+00 -0.12052195804E+03  0.12052195804E+03  0.00000000000E+00 0.  1.
          2    1    1    2  501    0  0.14261318735E+01 -0.21522569915E+02 -0.90386538233E+02  0.92924599335E+02  0.00000000000E+00 0.  1.
         -2    1    1    2    0  502 -0.14261318735E+01  0.21522569915E+02 -0.24837006992E+02  0.32895771524E+02  0.00000000000E+00 0. -1.
<mgrwt>
<rscale>  2 0.21569767E+02</rscale>
<asrwt>0</asrwt>
<pdfrwt beam="1">  1       21 0.81514049E-03 0.21569767E+02</pdfrwt>
<pdfrwt beam="2">  1       21 0.18541838E-01 0.21569767E+02</pdfrwt>
<totfact> 0.93738938E+07</totfact>
</mgrwt>
</event>
<event>
 4    1  0.7424968E+004  0.2781396E+02  0.7546771E-02  0.1623591E+00
         21   -1    0    0  501  502  0.00000000000E+00  0.00000000000E+00  0.89437855264E+01  0.89437855264E+01  0.00000000000E+00 0. -1.
         21   -1    0    0  502  503 -0.00000000000E+00 -0.00000000000E+00 -0.87458017438E+02  0.87458017438E+02  0.00000000000E+00 0. -1.
          5    1    1    2  501    0 -0.65930687556E+01 -0.27021249422E+02 -0.44308064010E+02  0.52314634781E+02  0.00000000000E+00 0. -1.
         -5    1    1    2    0  503  0.65930687556E+01  0.27021249422E+02 -0.34206167902E+02  0.44087168184E+02  0.00000000000E+00 0.  1.
<mgrwt>
<rscale>  2 0.27813962E+02</rscale>
<asrwt>0</asrwt>
<pdfrwt beam="1">  1       21 0.13759670E-02 0.27813962E+02</pdfrwt>
<pdfrwt beam="2">  1       21 0.13455079E-01 0.27813962E+02</pdfrwt>
<totfact> 0.78859584E+07</totfact>
</mgrwt>
</event>
<event>
 4    1  0.7424968E+004  0.2171529E+02  0.7546771E-02  0.1713223E+00
         21   -1    0    0  503  502  0.00000000000E+00  0.00000000000E+00  0.73323870282E+03  0.73323870282E+03  0.00000000000E+00 0.  1.
         21   -1    0    0  501  503 -0.00000000000E+00 -0.00000000000E+00 -0.67691661583E+00  0.67691661583E+00  0.00000000000E+00 0.  1.
          2    1    1    2  501    0  0.10046609271E+02  0.19251479880E+02  0.44828645787E+03  0.44881210116E+03  0.00000000000E+00 0. -1.
         -2    1    1    2    0  502 -0.10046609271E+02 -0.19251479880E+02  0.28427532833E+03  0.28510351827E+03  0.00000000000E+00 0.  1.
<mgrwt>
<rscale>  2 0.21715290E+02</rscale>
<asrwt>0</asrwt>
<pdfrwt beam="1">  1       21 0.11280532E+00 0.21715290E+02</pdfrwt>
<pdfrwt beam="2">  1       21 0.10414160E-03 0.21715290E+02</pdfrwt>
<totfact> 0.56729301E+07</totfact>
</mgrwt>
</event>
<event>
 4    1  0.7424968E+004  0.2190464E+02  0.7546771E-02  0.1709906E+00
         21   -1    0    0  501  502  0.00000000000E+00  0.00000000000E+00  0.62021326725E+02  0.62021326725E+02  0.00000000000E+00 0.  1.
         21   -1    0    0  502  503 -0.00000000000E+00 -0.00000000000E+00 -0.77652347541E+01  0.77652347541E+01  0.00000000000E+00 0.  1.
          1    1    1    2  501    0  0.21735013577E+02  0.27207286412E+01  0.29259450482E+02  0.36550357345E+02  0.00000000000E+00 0. -1.
         -1    1    1    2    0  503 -0.21735013577E+02 -0.27207286412E+01  0.24996641489E+02  0.33236204135E+02  0.00000000000E+00 0.  1.
<mgrwt>
<rscale>  2 0.21904638E+02</rscale>
<asrwt>0</asrwt>
<pdfrwt beam="1">  1       21 0.95417422E-02 0.21904638E+02</pdfrwt>
<pdfrwt beam="2">  1       21 0.11946515E-02 0.21904638E+02</pdfrwt>
<totfact> 0.16258313E+08</totfact>
</mgrwt>
</event>
<event>
 4    1  0.7424968E+004  0.4301132E+02  0.7546771E-02  0.1487153E+00
         21   -1    0    0  503  502  0.00000000000E+00  0.00000000000E+00  0.11006935893E+02  0.11006935893E+02  0.00000000000E+00 0.  1.
         21   -1    0    0  501  503 -0.00000000000E+00 -0.00000000000E+00 -0.18310343139E+03  0.18310343139E+03  0.00000000000E+00 0.  1.
          3    1    1    2  501    0 -0.34541507179E+02 -0.25629236177E+02 -0.58241511995E+02  0.72401983293E+02  0.00000000000E+00 0. -1.
         -3    1    1    2    0  502  0.34541507179E+02  0.25629236177E+02 -0.11385498350E+03  0.12170838399E+03  0.00000000000E+00 0.  1.
<mgrwt>
<rscale>  2 0.43011318E+02</rscale>
<asrwt>0</asrwt>
<pdfrwt beam="1">  1       21 0.16933748E-02 0.43011318E+02</pdfrwt>
<pdfrwt beam="2">  1       21 0.28169758E-01 0.43011318E+02</pdfrwt>
<totfact> 0.16812305E+07</totfact>
</mgrwt>
</event>
<event>
 4    1  0.7424968E+004  0.3047242E+02  0.7546771E-02  0.1592925E+00
         21   -1    0    0  503  502  0.00000000000E+00  0.00000000000E+00  0.69034553538E+01  0.69034553538E+01  0.00000000000E+00 0. -1.
         21   -1    0    0  501  503 -0.00000000000E+00 -0.00000000000E+00 -0.14346006789E+03  0.14346006789E+03  0.00000000000E+00 0. -1.
          3    1    1    2  501    0  0.11076170789E+02 -0.28388149422E+02 -0.49497530199E+02  0.58125502860E+02  0.00000000000E+00 0.  1.
         -3    1    1    2    0  502 -0.11076170789E+02  0.28388149422E+02 -0.87059082340E+02  0.92238020386E+02  0.00000000000E+00 0. -1.
<mgrwt>
<rscale>  2 0.30472423E+02</rscale>
<asrwt>0</asrwt>
<pdfrwt beam="1">  1       21 0.10620702E-02 0.30472423E+02</pdfrwt>
<pdfrwt beam="2">  1       21 0.22070777E-01 0.30472423E+02</pdfrwt>
<totfact> 0.50493435E+07</totfact>
</mgrwt>
</event>
<event>
 4    1  0.7424968E+004  0.4004671E+02  0.7546771E-02  0.1507868E+00
         21   -1    0    0  501  502  0.00000000000E+00  0.00000000000E+00  0.14193238298E+04  0.14193238298E+04  0.00000000000E+00 0.  1.
         21   -1    0    0  502  503 -0.00000000000E+00 -0.00000000000E+00 -0.16763819139E+01  0.16763819139E+01  0.00000000000E+00 0.  1.
          1    1    1    2  501    0 -0.11418566364E+02  0.38384308648E+02  0.11144751566E+04  0.11151944286E+04  0.00000000000E+00 0. -1.
         -1    1    1    2    0  503  0.11418566364E+02 -0.38384308648E+02  0.30317229134E+03  0.30580578321E+03  0.00000000000E+00 0.  1.
<mgrwt>
<rscale>  2 0.40046708E+02</rscale>
<asrwt>0</asrwt>
<pdfrwt beam="1">  1       21 0.21835655E+00 0.40046708E+02</pdfrwt>
<pdfrwt beam="2">  1       21 0.25790604E-03 0.40046708E+02</pdfrwt>
<totfact> 0.32438451E+06</totfact>
</mgrwt>
</event>
<event>
 4    1  0.7424968E+004  0.2114455E+02  0.7546771E-02  0.1723481E+00
         21   -1    0    0  501  502  0.00000000000E+00  0.00000000000E+00  0.23318821243E+02  0.23318821243E+02  0.00000000000E+00 0. -1.
         21   -1    0    0  502  503 -0.00000000000E+00 -0.00000000000E+00 -0.29476606862E+02  0.29476606862E+02  0.00000000000E+00 0. -1.
          2    1    1    2  501    0 -0.75551550949E+01 -0.19748710825E+02 -0.18685986786E+02  0.28218044757E+02  0.00000000000E+00 0.  1.
         -2    1    1    2    0  503  0.75551550949E+01  0.19748710825E+02  0.12528201167E+02  0.24577383348E+02  0.00000000000E+00 0. -1.
<mgrwt>
<rscale>  2 0.21144549E+02</rscale>
<asrwt>0</asrwt>
<pdfrwt beam="1">  1       21 0.35875109E-02 0.21144549E+02</pdfrwt>
<pdfrwt beam="2">  1       21 0.45348626E-02 0.21144549E+02</pdfrwt>
<totfact> 0.98760984E+07</totfact>
</mgrwt>
</event>
<event>
 4    1  0.7424968E+004  0.2197590E+02  0.7546771E-02  0.1708669E+00
         21   -1    0    0  503  502  0.00000000000E+00  0.00000000000E+00  0.30628920566E+02  0.30628920566E+02  0.00000000000E+00 0. -1.
         21   -1    0    0  501  503 -0.00000000000E+00 -0.00000000000E+00 -0.15786127424E+02  0.15786127424E+02  0.00000000000E+00 0. -1.
          1    1    1    2  501    0 -0.21965963755E+02 -0.66084687185E+00  0.82194505896E+01  0.23462728961E+02  0.00000000000E+00 0.  1.
         -1    1    1    2    0  502  0.21965963755E+02  0.66084687185E+00  0.66233425518E+01  0.22952319030E+02  0.00000000000E+00 0. -1.
<mgrwt>
<rscale>  2 0.21975902E+02</rscale>
<asrwt>0</asrwt>
<pdfrwt beam="1">  1       21 0.47121416E-02 0.21975902E+02</pdfrwt>
<pdfrwt beam="2">  1       21 0.24286350E-02 0.21975902E+02</pdfrwt>
<totfact> 0.17232441E+08</totfact>
</mgrwt>
</event>
<event>
 4    1  0.7424968E+004  0.4249565E+02  0.7546771E-02  0.1490610E+00
         21   -1    0    0  501  502  0.00000000000E+00  0.00000000000E+00  0.62848828979E+02  0.62848828979E+02  0.00000000000E+00 0.  1.
         21   -1    0    0  502  503 -0.00000000000E+00 -0.00000000000E+00 -0.40878122494E+02  0.40878122494E+02  0.00000000000E+00 0.  1.
          5    1    1    2  501    0 -0.39440074281E+02 -0.15822788898E+02 -0.17283251910E+02  0.45875820477E+02  0.00000000000E+00 0. -1.
         -5    1    1    2    0  503  0.39440074281E+02  0.15822788898E+02  0.39253958395E+02  0.57851130996E+02  0.00000000000E+00 0.  1.
<mgrwt>
<rscale>  2 0.42495648E+02</rscale>
<asrwt>0</asrwt>
<pdfrwt beam="1">  1       21 0.96690506E-02 0.42495648E+02</pdfrwt>
<pdfrwt beam="2">  1       21 0.62889419E-02 0.42495648E+02</pdfrwt>
<totfact> 0.13551780E+07</totfact>
</mgrwt>
</event>
<event>
 4    1  0.7424968E+004  0.2012740E+02  0.7546771E-02  0.1742806E+00
         21   -1    0    0  503  502  0.00000000000E+00  0.00000000000E+00  0.11102462582E+01  0.11102462582E+01  0.00000000000E+00 0. -1.
         21   -1    0    0  501  503 -0.00000000000E+00 -0.00000000000E+00 -0.37936373885E+03  0.37936373885E+03  0.00000000000E+00 0. -1.
          2    1    1    2  501    0  0.17134521294E+01 -0.20054337260E+02 -0.15196207174E+03  0.15328921557E+03  0.00000000000E+00 0.  1.
         -2    1    1    2    0  502 -0.17134521294E+01  0.20054337260E+02 -0.22629142085E+03  0.22718476954E+03  0.00000000000E+00 0. -1.
<mgrwt>
<rscale>  2 0.20127403E+02</rscale>
<asrwt>0</asrwt>
<pdfrwt beam="1">  1       21 0.17080703E-03 0.20127403E+02</pdfrwt>
<pdfrwt beam="2">  1       21 0.58363682E-01 0.20127403E+02</pdfrwt>
<totfact> 0.10945824E+08</totfact>
</mgrwt>
</event>
<event>
 4    1  0.7424968E+004  0.2493102E+02  0.7546771E-02  0.1661995E+00
         21   -1    0    0  503  502  0.00000000000E+00  0.00000000000E+00  0.30132340507E+02  0.30132340507E+02  0.00000000000E+00 0.  1.
         21   -1    0    0  501  503 -0.00000000000E+00 -0.00000000000E+00 -0.21531684526E+02  0.21531684526E+02  0.00000000000E+00 0.  1.
          5    1    1    2  501    0  0.16003765773E+02 -0.19116357737E+02  0.95938096375E+01  0.26713233338E+02  0.00000000000E+00 0. -1.
         -5    1    1    2    0  502 -0.16003765773E+02  0.19116357737E+02 -0.99315365663E+00  0.24950791695E+02  0.00000000000E+00 0.  1.
<mgrwt>
<rscale>  2 0.24931018E+02</rscale>
<asrwt>0</asrwt>
<pdfrwt beam="1">  1       21 0.46357447E-02 0.24931018E+02</pdfrwt>
<pdfrwt beam="2">  1       21 0.33125668E-02 0.24931018E+02</pdfrwt>
<totfact> 0.11332372E+08</totfact>
</mgrwt>
</event>
<event>
 4    1  0.7424968E+004  0.2079914E+02  0.7546771E-02  0.1729888E+00
         21   -1    0    0  503  502  0.00000000000E+00  0.00000000000E+00  0.10300195514E+01  0.10300195514E+01  0.00000000000E+00 0.  1.
         21   -1    0    0  501  503 -0.00000000000E+00 -0.00000000000E+00 -0.42508065015E+03  0.42508065015E+03  0.00000000000E+00 0.  1.
          3    1    1    2  501    0 -0.10123699161E+02 -0.18169062254E+02 -0.18872366901E+03  0.18986634076E+03  0.00000000000E+00 0.  1.
         -3    1    1    2    0  502  0.10123699161E+02  0.18169062254E+02 -0.23532696159E+03  0.23624432895E+03  0.00000000000E+00 0. -1.
<mgrwt>
<rscale>  2 0.20799137E+02</rscale>
<asrwt>0</asrwt>
<pdfrwt beam="1">  1       21 0.15846430E-03 0.20799137E+02</pdfrwt>
<pdfrwt beam="2">  1       21 0.65397125E-01 0.20799137E+02</pdfrwt>
<totfact> 0.97948746E+07</totfact>
</mgrwt>
</event>
<event>
 4    1  0.7424968E+004  0.2008130E+02  0.7546771E-02  0.1743716E+00
         21   -1    0    0  503  502  0.00000000000E+00  0.00000000000E+00  0.12428678385E+02  0.12428678385E+02  0.00000000000E+00 0. -1.
         21   -1    0    0  501  503 -0.00000000000E+00 -0.00000000000E+00 -0.33262125999E+02  0.33262125999E+02  0.00000000000E+00 0. -1.
          3    1    1    2  501    0  0.58085097232E+00  0.20072899840E+02 -0.13995623856E+02  0.24477258486E+02  0.00000000000E+00 0. -1.
         -3    1    1    2    0  502 -0.58085097232E+00 -0.20072899840E+02 -0.68378237582E+01  0.21213545899E+02  0.00000000000E+00 0.  1.
<mgrwt>
<rscale>  2 0.20081302E+02</rscale>
<asrwt>0</asrwt>
<pdfrwt beam="1">  1       21 0.19121044E-02 0.20081302E+02</pdfrwt>
<pdfrwt beam="2">  1       21 0.51172502E-02 0.20081302E+02</pdfrwt>
<totfact> 0.21194733E+08</totfact>
</mgrwt>
</event>
<event>
 4    1  0.7424968E+004  0.2049134E+02  0.7546771E-02  0.1735730E+00
         21   -1    0    0  501  502  0.00000000000E+00  0.00000000000E+00  0.21270356334E+01  0.21270356334E+01  0.00000000000E+00 0. -1.
         21   -1    0    0  502  503 -0.00000000000E+00 -0.00000000000E+00 -0.21308659550E+03  0.21308659550E+03  0.00000000000E+00 0. -1.
          1    1    1    2  501    0 -0.20057573666E+02 -0.41938781011E+01 -0.76291492096E+02  0.78995484942E+02  0.00000000000E+00 0. -1.
         -1    1    1    2    0  503  0.20057573666E+02  0.41938781011E+01 -0.13466806777E+03  0.13621814619E+03  0.00000000000E+00 0.  1.
<mgrwt>
<rscale>  2 0.20491337E+02</rscale>
<asrwt>0</asrwt>
<pdfrwt beam="1">  1       21 0.32723625E-03 0.20491337E+02</pdfrwt>
<pdfrwt beam="2">  1       21 0.32782553E-01 0.20491337E+02</pdfrwt>
<totfact> 0.12871266E+08</totfact>
</mgrwt>
</event>
<event>
 4    1  0.7424968E+004  0.3569208E+02  0.7546771E-02  0.1542539E+00
         21   -1    0    0  503  502  0.00000000000E+00  0.00000000000E+00  0.61497318381E+00  0.61497318381E+00  0.00000000000E+00 0.  1.
         21   -1    0    0  501  503 -0.00000000000E+00 -0.00000000000E+00 -0.20733457652E+04  0.20733457652E+04  0.00000000000E+00 0.  1.
          1    1    1    2  501    0  0.32788260484E+02  0.14101586009E+02 -0.10055317447E+04  0.10061650036E+04  0.00000000000E+00 0. -1.
         -1    1    1    2    0  502 -0.32788260484E+02 -0.14101586009E+02 -0.10671990473E+04  0.10677957348E+04  0.00000000000E+00 0.  1.
<mgrwt>
<rscale>  2 0.35692083E+02</rscale>
<asrwt>0</asrwt>
<pdfrwt beam="1">  1       21 0.94611532E-04 0.35692083E+02</pdfrwt>
<pdfrwt beam="2">  1       21 0.31897535E+00 0.35692083E+02</pdfrwt>
<totfact> 0.42027446E+06</totfact>
</mgrwt>
</event>
<event>
 4    1  0.7424968E+004  0.2191989E+02  0.7546771E-02  0.1709641E+00
         21   -1    0    0  503  502  0.00000000000E+00  0.00000000000E+00  0.27518118733E+02  0.27518118733E+02  0.00000000000E+00 0. -1.
         21   -1    0    0  501  503 -0.00000000000E+00 -0.00000000000E+00 -0.19062752534E+02  0.19062752534E+02  0.00000000000E+00 0. -1.
          5    1    1    2  501    0 -0.12087656796E+02  0.18285787886E+02 -0.25244893671E+01  0.22064780352E+02  0.00000000000E+00 0. -1.
         -5    1    1    2    0  502  0.12087656796E+02 -0.18285787886E+02  0.10979855567E+02  0.24516090914E+02  0.00000000000E+00 0.  1.
<mgrwt>
<rscale>  2 0.21919888E+02</rscale>
<asrwt>0</asrwt>
<pdfrwt beam="1">  1       21 0.42335567E-02 0.21919888E+02</pdfrwt>
<pdfrwt beam="2">  1       21 0.29327312E-02 0.21919888E+02</pdfrwt>
<totfact> 0.15232741E+08</totfact>
</mgrwt>
</event>
<event>
 4    1  0.7424968E+004  0.2633471E+02  0.7546771E-02  0.1642539E+00
         21   -1    0    0  501  502  0.00000000000E+00  0.00000000000E+00  0.11154960404E+03  0.11154960404E+03  0.00000000000E+00 0.  1.
         21   -1    0    0  502  503 -0.00000000000E+00 -0.00000000000E+00 -0.68525178888E+01  0.68525178888E+01  0.00000000000E+00 0.  1.
          2    1    1    2  501    0  0.11783307441E+01  0.26308330343E+02  0.34321312352E+02  0.43260480699E+02  0.00000000000E+00 0.  1.
         -2    1    1    2    0  503 -0.11783307441E+01 -0.26308330343E+02  0.70375773801E+02  0.75141641231E+02  0.00000000000E+00 0. -1.
<mgrwt>
<rscale>  2 0.26334705E+02</rscale>
<asrwt>0</asrwt>
<pdfrwt beam="1">  1       21 0.17161476E-01 0.26334705E+02</pdfrwt>
<pdfrwt beam="2">  1       21 0.10542336E-02 0.26334705E+02</pdfrwt>
<totfact> 0.76793977E+07</totfact>
</mgrwt>
</event>
<event>
 4    1  0.7424968E+004  0.3477104E+02  0.7546771E-02  0.1550643E+00
         21   -1    0    0  501  502  0.00000000000E+00  0.00000000000E+00  0.36896151078E+03  0.36896151078E+03  0.00000000000E+00 0.  1.
         21   -1    0    0  502  503 -0.00000000000E+00 -0.00000000000E+00 -0.40260549622E+01  0.40260549622E+01  0.00000000000E+00 0.  1.
          1    1    1    2  501    0 -0.15050259335E+02 -0.31345097491E+02  0.26291838772E+03  0.26520766212E+03  0.00000000000E+00 0. -1.
         -1    1    1    2    0  503  0.15050259335E+02  0.31345097491E+02  0.10201706809E+03  0.10777990362E+03  0.00000000000E+00 0.  1.
<mgrwt>
<rscale>  2 0.34771043E+02</rscale>
<asrwt>0</asrwt>
<pdfrwt beam="1">  1       21 0.56763283E-01 0.34771043E+02</pdfrwt>
<pdfrwt beam="2">  1       21 0.61939336E-03 0.34771043E+02</pdfrwt>
<totfact> 0.19650924E+07</totfact>
</mgrwt>
</event>
<event>
 4    1  0.7424968E+004  0.2062422E+02  0.7546771E-02  0.1733192E+00
         21   -1    0    0  503  502  0.00000000000E+00  0.00000000000E+00  0.18569270617E+02  0.18569270617E+02  0.00000000000E+00 0.  1.
         21   -1    0    0  501  503 -0.00000000000E+00 -0.00000000000E+00 -0.24662198796E+02  0.24662198796E+02  0.00000000000E+00 0.  1.
          4    1    1    2  501    0 -0.24959327745E+00  0.20622709760E+02 -0.88137224037E+01  0.22428556736E+02  0.00000000000E+00 0. -1.
         -4    1    1    2    0  502  0.24959327745E+00 -0.20622709760E+02  0.27207942243E+01  0.20802912677E+02  0.00000000000E+00 0.  1.
<mgrwt>
<rscale>  2 0.20624220E+02</rscale>
<asrwt>0</asrwt>
<pdfrwt beam="1">  1       21 0.28568109E-02 0.20624220E+02</pdfrwt>
<pdfrwt beam="2">  1       21 0.37941844E-02 0.20624220E+02</pdfrwt>
<totfact> 0.18487942E+08</totfact>
</mgrwt>
</event>
<event>
 4    1  0.7424968E+004  0.2185042E+02  0.7546771E-02  0.1710852E+00
         21   -1    0    0  503  502  0.00000000000E+00  0.00000000000E+00  0.18329291632E+02  0.18329291632E+02  0.00000000000E+00 0.  1.
         21   -1    0    0  501  503 -0.00000000000E+00 -0.00000000000E+00 -0.26486082645E+02  0.26486082645E+02  0.00000000000E+00 0.  1.
          1    1    1    2  501    0 -0.10539501605E+02  0.19140526418E+02 -0.11964824826E+01  0.21883153703E+02  0.00000000000E+00 0. -1.
         -1    1    1    2    0  502  0.10539501605E+02 -0.19140526418E+02 -0.69603085302E+01  0.22932220574E+02  0.00000000000E+00 0.  1.
<mgrwt>
<rscale>  2 0.21850420E+02</rscale>
<asrwt>0</asrwt>
<pdfrwt beam="1">  1       21 0.28198910E-02 0.21850420E+02</pdfrwt>
<pdfrwt beam="2">  1       21 0.40747820E-02 0.21850420E+02</pdfrwt>
<totfact> 0.17176667E+08</totfact>
</mgrwt>
</event>
<event>
 4    1  0.7424968E+004  0.2024568E+02  0.7546771E-02  0.1740486E+00
         21   -1    0    0  503  502  0.00000000000E+00  0.00000000000E+00  0.72985573413E+01  0.72985573413E+01  0.00000000000E+00 0. -1.
         21   -1    0    0  501  503 -0.00000000000E+00 -0.00000000000E+00 -0.74047631755E+02  0.74047631755E+02  0.00000000000E+00 0. -1.
          5    1    1    2  501    0  0.39329426438E+01  0.19859993045E+02 -0.53365210350E+02  0.57076554182E+02  0.00000000000E+00 0. -1.
         -5    1    1    2    0  502 -0.39329426438E+01 -0.19859993045E+02 -0.13383864064E+02  0.24269634915E+02  0.00000000000E+00 0.  1.
<mgrwt>
<rscale>  2 0.20245675E+02</rscale>
<asrwt>0</asrwt>
<pdfrwt beam="1">  1       21 0.11228550E-02 0.20245675E+02</pdfrwt>
<pdfrwt beam="2">  1       21 0.11391943E-01 0.20245675E+02</pdfrwt>
<totfact> 0.13000426E+08</totfact>
</mgrwt>
</event>
<event>
 4    1  0.7424968E+004  0.2243849E+02  0.7546771E-02  0.1700777E+00
         21   -1    0    0  501  502  0.00000000000E+00  0.00000000000E+00  0.21694011234E+03  0.21694011234E+03  0.00000000000E+00 0. -1.
         21   -1    0    0  502  503 -0.00000000000E+00 -0.00000000000E+00 -0.23894478223E+01  0.23894478223E+01  0.00000000000E+00 0. -1.
          3    1    1    2  501    0 -0.16643589398E+02  0.15049142028E+02  0.12585634645E+03  0.12784093901E+03  0.00000000000E+00 0. -1.
         -3    1    1    2    0  503  0.16643589398E+02 -0.15049142028E+02  0.88694318071E+02  0.91488621161E+02  0.00000000000E+00 0.  1.
<mgrwt>
<rscale>  2 0.22438488E+02</rscale>
<asrwt>0</asrwt>
<pdfrwt beam="1">  1       21 0.33375386E-01 0.22438488E+02</pdfrwt>
<pdfrwt beam="2">  1       21 0.36760753E-03 0.22438488E+02</pdfrwt>
<totfact> 0.10781126E+08</totfact>
</mgrwt>
</event>
<event>
 4    1  0.7424968E+004  0.2133541E+02  0.7546771E-02  0.1720006E+00
         21   -1    0    0  503  502  0.00000000000E+00  0.00000000000E+00  0.44199011382E+00  0.44199011382E+00  0.00000000000E+00 0. -1.
         21   -1    0    0  501  503 -0.00000000000E+00 -0.00000000000E+00 -0.10332580975E+04  0.10332580975E+04  0.00000000000E+00 0. -1.
          4    1    1    2  501    0  0.10259769146E+02  0.18706598168E+02 -0.54593198139E+03  0.54634872378E+03  0.00000000000E+00 0. -1.
         -4    1    1    2    0  502 -0.10259769146E+02 -0.18706598168E+02 -0.48688412598E+03  0.48735136381E+03  0.00000000000E+00 0.  1.
<mgrwt>
<rscale>  2 0.21335409E+02</rscale>
<asrwt>0</asrwt>
<pdfrwt beam="1">  1       21 0.67999471E-04 0.21335409E+02</pdfrwt>
<pdfrwt beam="2">  1       21 0.15896047E+00 0.21335409E+02</pdfrwt>
<totfact> 0.46846734E+07</totfact>
</mgrwt>
</event>
<event>
 4    1  0.7424968E+004  0.2523387E+02  0.7546771E-02  0.1657665E+00
         21   -1    0    0  503  502  0.00000000000E+00  0.00000000000E+00  0.15433169032E+01  0.15433169032E+01  0.00000000000E+00 0. -1.
         21   -1    0    0  501  503 -0.00000000000E+00 -0.00000000000E+00 -0.42927594957E+03  0.42927594957E+03  0.00000000000E+00 0. -1.
          3    1    1    2  501    0 -0.22984549258E+02  0.10414360285E+02 -0.17139010306E+03  0.17323774367E+03  0.00000000000E+00 0. -1.
         -3    1    1    2    0  502  0.22984549258E+02 -0.10414360285E+02 -0.25634252961E+03  0.25758152280E+03  0.00000000000E+00 0.  1.
<mgrwt>
<rscale>  2 0.25233874E+02</rscale>
<asrwt>0</asrwt>
<pdfrwt beam="1">  1       21 0.23743357E-03 0.25233874E+02</pdfrwt>
<pdfrwt beam="2">  1       21 0.66042398E-01 0.25233874E+02</pdfrwt>
<totfact> 0.56150437E+07</totfact>
</mgrwt>
</event>
<event>
 4    1  0.7424968E+004  0.2080156E+02  0.7546771E-02  0.1729842E+00
         21   -1    0    0  501  502  0.00000000000E+00  0.00000000000E+00  0.70455125393E+03  0.70455125393E+03  0.00000000000E+00 0. -1.
         21   -1    0    0  502  503 -0.00000000000E+00 -0.00000000000E+00 -0.65215127190E+00  0.65215127190E+00  0.00000000000E+00 0. -1.
          1    1    1    2  501    0  0.12840830553E+02  0.16365141731E+02  0.26684130179E+03  0.26765086425E+03  0.00000000000E+00 0.  1.
         -1    1    1    2    0  503 -0.12840830553E+02 -0.16365141731E+02  0.43705780087E+03  0.43755254095E+03  0.00000000000E+00 0. -1.
<mgrwt>
<rscale>  2 0.20801557E+02</rscale>
<asrwt>0</asrwt>
<pdfrwt beam="1">  1       21 0.10839189E+00 0.20801557E+02</pdfrwt>
<pdfrwt beam="2">  1       21 0.10033153E-03 0.20801557E+02</pdfrwt>
<totfact> 0.64706304E+07</totfact>
</mgrwt>
</event>
<event>
 4    1  0.7424968E+004  0.2055212E+02  0.7546771E-02  0.1734566E+00
         21   -1    0    0  501  502  0.00000000000E+00  0.00000000000E+00  0.53739332754E+02  0.53739332754E+02  0.00000000000E+00 0.  1.
         21   -1    0    0  502  503 -0.00000000000E+00 -0.00000000000E+00 -0.78727289453E+01  0.78727289453E+01  0.00000000000E+00 0.  1.
          4    1    1    2  501    0 -0.10969247913E+02 -0.17380026505E+02  0.24173308974E+02  0.31729144140E+02  0.00000000000E+00 0.  1.
         -4    1    1    2    0  503  0.10969247913E+02  0.17380026505E+02  0.21693294835E+02  0.29882917560E+02  0.00000000000E+00 0. -1.
<mgrwt>
<rscale>  2 0.20552122E+02</rscale>
<asrwt>0</asrwt>
<pdfrwt beam="1">  1       21 0.82675894E-02 0.20552122E+02</pdfrwt>
<pdfrwt beam="2">  1       21 0.12111891E-02 0.20552122E+02</pdfrwt>
<totfact> 0.19737781E+08</totfact>
</mgrwt>
</event>
<event>
 4    1  0.7424968E+004  0.4333587E+02  0.7546771E-02  0.1485006E+00
         21   -1    0    0  501  502  0.00000000000E+00  0.00000000000E+00  0.23132454185E+03  0.23132454185E+03  0.00000000000E+00 0.  1.
         21   -1    0    0  502  503 -0.00000000000E+00 -0.00000000000E+00 -0.84355042767E+01  0.84355042767E+01  0.00000000000E+00 0.  1.
          2    1    1    2  501    0  0.73886698183E+01 -0.42701347923E+02  0.13468556345E+03  0.14148568322E+03  0.00000000000E+00 0. -1.
         -2    1    1    2    0  503 -0.73886698183E+01  0.42701347923E+02  0.88203474127E+02  0.98274362904E+02  0.00000000000E+00 0.  1.
<mgrwt>
<rscale>  2 0.43335869E+02</rscale>
<asrwt>0</asrwt>
<pdfrwt beam="1">  1       21 0.35588386E-01 0.43335869E+02</pdfrwt>
<pdfrwt beam="2">  1       21 0.12977701E-02 0.43335869E+02</pdfrwt>
<totfact> 0.16399526E+07</totfact>
</mgrwt>
</event>
<event>
 4    1  0.7424968E+004  0.2316805E+02  0.7546771E-02  0.1688800E+00
         21   -1    0    0  503  502  0.00000000000E+00  0.00000000000E+00  0.22049233572E+03  0.22049233572E+03  0.00000000000E+00 0.  1.
         21   -1    0    0  501  503 -0.00000000000E+00 -0.00000000000E+00 -0.41484196831E+01  0.41484196831E+01  0.00000000000E+00 0.  1.
          3    1    1    2  501    0  0.15731796767E+02 -0.17007917454E+02  0.18037069971E+03  0.18185254466E+03  0.00000000000E+00 0. -1.
         -3    1    1    2    0  502 -0.15731796767E+02  0.17007917454E+02  0.35973216328E+02  0.42788210743E+02  0.00000000000E+00 0.  1.
<mgrwt>
<rscale>  2 0.23168053E+02</rscale>
<asrwt>0</asrwt>
<pdfrwt beam="1">  1       21 0.33921889E-01 0.23168053E+02</pdfrwt>
<pdfrwt beam="2">  1       21 0.63821858E-03 0.23168053E+02</pdfrwt>
<totfact> 0.46798405E+07</totfact>
</mgrwt>
</event>
<event>
 4    1  0.7424968E+004  0.3988197E+02  0.7546771E-02  0.1509082E+00
         21   -1    0    0  503  502  0.00000000000E+00  0.00000000000E+00  0.24746767007E+03  0.24746767007E+03  0.00000000000E+00 0. -1.
         21   -1    0    0  501  503 -0.00000000000E+00 -0.00000000000E+00 -0.72286450614E+01  0.72286450614E+01  0.00000000000E+00 0. -1.
          4    1    1    2  501    0 -0.37803070889E+02  0.12708238276E+02  0.16251789837E+03  0.16733988998E+03  0.00000000000E+00 0. -1.
         -4    1    1    2    0  502  0.37803070889E+02 -0.12708238276E+02  0.77721126633E+02  0.87356425143E+02  0.00000000000E+00 0.  1.
<mgrwt>
<rscale>  2 0.39881969E+02</rscale>
<asrwt>0</asrwt>
<pdfrwt beam="1">  1       21 0.38071943E-01 0.39881969E+02</pdfrwt>
<pdfrwt beam="2">  1       21 0.11120994E-02 0.39881969E+02</pdfrwt>
<totfact> 0.18069169E+07</totfact>
</mgrwt>
</event>
<event>
 4    1  0.7424968E+004  0.2327755E+02  0.7546771E-02  0.1687050E+00
         21   -1    0    0  503  502  0.00000000000E+00  0.00000000000E+00  0.85922636381E+02  0.85922636381E+02  0.00000000000E+00 0. -1.
         21   -1    0    0  501  503 -0.00000000000E+00 -0.00000000000E+00 -0.63489603701E+01  0.63489603701E+01  0.00000000000E+00 0. -1.
          5    1    1    2  501    0  0.14187835878E+02 -0.18453981667E+02  0.43573692045E+02  0.49401525935E+02  0.00000000000E+00 0.  1.
         -5    1    1    2    0  502 -0.14187835878E+02  0.18453981667E+02  0.35999983966E+02  0.42870070817E+02  0.00000000000E+00 0. -1.
<mgrwt>
<rscale>  2 0.23277546E+02</rscale>
<asrwt>0</asrwt>
<pdfrwt beam="1">  1       21 0.13218866E-01 0.23277546E+02</pdfrwt>
<pdfrwt beam="2">  1       21 0.97676319E-03 0.23277546E+02</pdfrwt>
<totfact> 0.13022140E+08</totfact>
</mgrwt>
</event>
<event>
 4    1  0.7424968E+004  0.2590719E+02  0.7546771E-02  0.1648303E+00
         21   -1    0    0  503  502  0.00000000000E+00  0.00000000000E+00  0.46600898365E+02  0.46600898365E+02  0.00000000000E+00 0. -1.
         21   -1    0    0  501  503 -0.00000000000E+00 -0.00000000000E+00 -0.16388905246E+02  0.16388905246E+02  0.00000000000E+00 0. -1.
          5    1    1    2  501    0  0.27474726505E+01  0.25761096222E+02  0.26069974142E+02  0.36753588073E+02  0.00000000000E+00 0. -1.
         -5    1    1    2    0  502 -0.27474726505E+01 -0.25761096222E+02  0.41420189770E+01  0.26236215537E+02  0.00000000000E+00 0.  1.
<mgrwt>
<rscale>  2 0.25907194E+02</rscale>
<asrwt>0</asrwt>
<pdfrwt beam="1">  1       21 0.71693689E-02 0.25907194E+02</pdfrwt>
<pdfrwt beam="2">  1       21 0.25213701E-02 0.25907194E+02</pdfrwt>
<totfact> 0.86881260E+07</totfact>
</mgrwt>
</event>
<event>
 4    1  0.7424968E+004  0.2320181E+02  0.7546771E-02  0.1688260E+00
         21   -1    0    0  501  502  0.00000000000E+00  0.00000000000E+00  0.76503137295E+02  0.76503137295E+02  0.00000000000E+00 0. -1.
         21   -1    0    0  502  503 -0.00000000000E+00 -0.00000000000E+00 -0.72931068458E+01  0.72931068458E+01  0.00000000000E+00 0. -1.
          3    1    1    2  501    0 -0.55356286303E+01 -0.22531768838E+02  0.26747817894E+02  0.35408608464E+02  0.00000000000E+00 0.  1.
         -3    1    1    2    0  503  0.55356286303E+01  0.22531768838E+02  0.42462212555E+02  0.48387635676E+02  0.00000000000E+00 0. -1.
<mgrwt>
<rscale>  2 0.23201806E+02</rscale>
<asrwt>0</asrwt>
<pdfrwt beam="1">  1       21 0.11769713E-01 0.23201806E+02</pdfrwt>
<pdfrwt beam="2">  1       21 0.11220165E-02 0.23201806E+02</pdfrwt>
<totfact> 0.12834956E+08</totfact>
</mgrwt>
</event>
<event>
 4    1  0.7424968E+004  0.2194456E+02  0.7546771E-02  0.1709213E+00
         21   -1    0    0  503  502  0.00000000000E+00  0.00000000000E+00  0.20400648907E+03  0.20400648907E+03  0.00000000000E+00 0.  1.
         21   -1    0    0  501  503 -0.00000000000E+00 -0.00000000000E+00 -0.28261084410E+01  0.28261084410E+01  0.00000000000E+00 0.  1.
          2    1    1    2  501    0  0.15979391297E+02  0.15040709040E+02  0.58615257363E+02  0.62588435596E+02  0.00000000000E+00 0.  1.
         -2    1    1    2    0  502 -0.15979391297E+02 -0.15040709040E+02  0.14256512327E+03  0.14424416191E+03  0.00000000000E+00 0. -1.
<mgrwt>
<rscale>  2 0.21944564E+02</rscale>
<asrwt>0</asrwt>
<pdfrwt beam="1">  1       21 0.31385602E-01 0.21944564E+02</pdfrwt>
<pdfrwt beam="2">  1       21 0.43478607E-03 0.21944564E+02</pdfrwt>
<totfact> 0.93790172E+07</totfact>
</mgrwt>
</event>
<event>
 4    1  0.7424968E+004  0.2499732E+02  0.7546771E-02  0.1661040E+00
         21   -1    0    0  501  502  0.00000000000E+00  0.00000000000E+00  0.35150905570E+03  0.35150905570E+03  0.00000000000E+00 0.  1.
         21   -1    0    0  502  503 -0.00000000000E+00 -0.00000000000E+00 -0.17862324168E+01  0.17862324168E+01  0.00000000000E+00 0.  1.
          1    1    1    2  501    0  0.17726440385E+02 -0.17624959553E+02  0.18709417844E+03  0.18875671510E+03  0.00000000000E+00 0.  1.
         -1    1    1    2    0  503 -0.17726440385E+02  0.17624959553E+02  0.16262864484E+03  0.16453857302E+03  0.00000000000E+00 0. -1.
<mgrwt>
<rscale>  2 0.24997318E+02</rscale>
<asrwt>0</asrwt>
<pdfrwt beam="1">  1       21 0.54078261E-01 0.24997318E+02</pdfrwt>
<pdfrwt beam="2">  1       21 0.27480527E-03 0.24997318E+02</pdfrwt>
<totfact> 0.67624590E+07</totfact>
</mgrwt>
</event>
<event>
 4    1  0.7424968E+004  0.2794663E+02  0.7546771E-02  0.1621962E+00
         21   -1    0    0  501  502  0.00000000000E+00  0.00000000000E+00  0.15631077793E+01  0.15631077793E+01  0.00000000000E+00 0.  1.
         21   -1    0    0  502  503 -0.00000000000E+00 -0.00000000000E+00 -0.52486255617E+03  0.52486255617E+03  0.00000000000E+00 0.  1.
          4    1    1    2  501    0 -0.23756393915E+02 -0.14718968482E+02 -0.20396624244E+03  0.20587190761E+03  0.00000000000E+00 0.  1.
         -4    1    1    2    0  503  0.23756393915E+02  0.14718968482E+02 -0.31933320595E+03  0.32055375635E+03  0.00000000000E+00 0. -1.
<mgrwt>
<rscale>  2 0.27946633E+02</rscale>
<asrwt>0</asrwt>
<pdfrwt beam="1">  1       21 0.24047776E-03 0.27946633E+02</pdfrwt>
<pdfrwt beam="2">  1       21 0.80748207E-01 0.27946633E+02</pdfrwt>
<totfact> 0.37062405E+07</totfact>
</mgrwt>
</event>
<event>
 4    1  0.7424968E+004  0.2228297E+02  0.7546771E-02  0.1703404E+00
         21   -1    0    0  501  502  0.00000000000E+00  0.00000000000E+00  0.57089641726E+02  0.57089641726E+02  0.00000000000E+00 0. -1.
         21   -1    0    0  502  503 -0.00000000000E+00 -0.00000000000E+00 -0.97299799056E+01  0.97299799056E+01  0.00000000000E+00 0. -1.
          1    1    1    2  501    0 -0.20111175633E+02 -0.95953918676E+01  0.12795999824E+02  0.25695691116E+02  0.00000000000E+00 0.  1.
         -1    1    1    2    0  503  0.20111175633E+02  0.95953918676E+01  0.34563661997E+02  0.41123930516E+02  0.00000000000E+00 0. -1.
<mgrwt>
<rscale>  2 0.22282974E+02</rscale>
<asrwt>0</asrwt>
<pdfrwt beam="1">  1       21 0.87830216E-02 0.22282974E+02</pdfrwt>
<pdfrwt beam="2">  1       21 0.14969200E-02 0.22282974E+02</pdfrwt>
<totfact> 0.13312471E+08</totfact>
</mgrwt>
</event>
<event>
 4    1  0.7424968E+004  0.2388307E+02  0.7546771E-02  0.1677583E+00
         21   -1    0    0  501  502  0.00000000000E+00  0.00000000000E+00  0.17761343180E+02  0.17761343180E+02  0.00000000000E+00 0.  1.
         21   -1    0    0  502  503 -0.00000000000E+00 -0.00000000000E+00 -0.33829956086E+02  0.33829956086E+02  0.00000000000E+00 0.  1.
          5    1    1    2  501    0 -0.14003749048E+02  0.19346730079E+02 -0.22259276539E+01  0.23986573454E+02  0.00000000000E+00 0.  1.
         -5    1    1    2    0  503  0.14003749048E+02 -0.19346730079E+02 -0.13842685251E+02  0.27604725812E+02  0.00000000000E+00 0. -1.
<mgrwt>
<rscale>  2 0.23883068E+02</rscale>
<asrwt>0</asrwt>
<pdfrwt beam="1">  1       21 0.27325144E-02 0.23883068E+02</pdfrwt>
<pdfrwt beam="2">  1       21 0.52046085E-02 0.23883068E+02</pdfrwt>
<totfact> 0.12571570E+08</totfact>
</mgrwt>
</event>
<event>
 4    1  0.7424968E+004  0.2435522E+02  0.7546771E-02  0.1670440E+00
         21   -1    0    0  501  502  0.00000000000E+00  0.00000000000E+00  0.13903901860E+03  0.13903901860E+03  0.00000000000E+00 0. -1.
         21   -1    0    0  502  503 -0.00000000000E+00 -0.00000000000E+00 -0.44045786639E+01  0.44045786639E+01  0.00000000000E+00 0. -1.
          2    1    1    2  501    0  0.20068344276E+02  0.13799945065E+02  0.80026932856E+02  0.83650982708E+02  0.00000000000E+00 0. -1.
         -2    1    1    2    0  503 -0.20068344276E+02 -0.13799945065E+02  0.54607507076E+02  0.59792614551E+02  0.00000000000E+00 0.  1.
<mgrwt>
<rscale>  2 0.24355224E+02</rscale>
<asrwt>0</asrwt>
<pdfrwt beam="1">  1       21 0.21390615E-01 0.24355224E+02</pdfrwt>
<pdfrwt beam="2">  1       21 0.67762759E-03 0.24355224E+02</pdfrwt>
<totfact> 0.99478825E+07</totfact>
</mgrwt>
</event>
<event>
 4    1  0.7424968E+004  0.2181406E+02  0.7546771E-02  0.1711488E+00
         21   -1    0    0  501  502  0.00000000000E+00  0.00000000000E+00  0.23103978452E+01  0.23103978452E+01  0.00000000000E+00 0.  1.
         21   -1    0    0  502  503 -0.00000000000E+00 -0.00000000000E+00 -0.22353822471E+03  0.22353822471E+03  0.00000000000E+00 0.  1.
          4    1    1    2  501    0 -0.93228603236E+01  0.19721503081E+02 -0.78948994941E+02  0.81907247607E+02  0.00000000000E+00 0. -1.
         -4    1    1    2    0  503  0.93228603236E+01 -0.19721503081E+02 -0.14227883193E+03  0.14394137495E+03  0.00000000000E+00 0.  1.
<mgrwt>
<rscale>  2 0.21814064E+02</rscale>
<asrwt>0</asrwt>
<pdfrwt beam="1">  1       21 0.35544586E-03 0.21814064E+02</pdfrwt>
<pdfrwt beam="2">  1       21 0.34390492E-01 0.21814064E+02</pdfrwt>
<totfact> 0.10634344E+08</totfact>
</mgrwt>
</event>
<event>
 4    1  0.7424968E+004  0.2399577E+02  0.7546771E-02  0.1675860E+00
         21   -1    0    0  501  502  0.00000000000E+00  0.00000000000E+00  0.93247214210E+02  0.93247214210E+02  0.00000000000E+00 0. -1.
         21   -1    0    0  502  503 -0.00000000000E+00 -0.00000000000E+00 -0.65144925135E+01  0.65144925135E+01  0.00000000000E+00 0. -1.
          1    1    1    2  501    0 -0.23069459484E+02 -0.66027858309E+01  0.31978513264E+02  0.39980270787E+02  0.00000000000E+00 0. -1.
         -1    1    1    2    0  503  0.23069459484E+02  0.66027858309E+01  0.54754208433E+02  0.59781435937E+02  0.00000000000E+00 0.  1.
<mgrwt>
<rscale>  2 0.23995765E+02</rscale>
<asrwt>0</asrwt>
<pdfrwt beam="1">  1       21 0.14345724E-01 0.23995765E+02</pdfrwt>
<pdfrwt beam="2">  1       21 0.10022297E-02 0.23995765E+02</pdfrwt>
<totfact> 0.11002487E+08</totfact>
</mgrwt>
</event>
<event>
 4    1  0.7424968E+004  0.2123798E+02  0.7546771E-02  0.1721774E+00
         21   -1    0    0  503  502  0.00000000000E+00  0.00000000000E+00  0.31230583213E+02  0.31230583213E+02  0.00000000000E+00 0.  1.
         21   -1    0    0  501  503 -0.00000000000E+00 -0.00000000000E+00 -0.15774559408E+02  0.15774559408E+02  0.00000000000E+00 0.  1.
          3    1    1    2  501    0  0.14953012046E+02  0.15081753595E+02  0.14557321918E+02  0.25748154927E+02  0.00000000000E+00 0. -1.
         -3    1    1    2    0  502 -0.14953012046E+02 -0.15081753595E+02  0.89870188739E+00  0.21256987694E+02  0.00000000000E+00 0.  1.
<mgrwt>
<rscale>  2 0.21237982E+02</rscale>
<asrwt>0</asrwt>
<pdfrwt beam="1">  1       21 0.48047051E-02 0.21237982E+02</pdfrwt>
<pdfrwt beam="2">  1       21 0.24268553E-02 0.21237982E+02</pdfrwt>
<totfact> 0.16550613E+08</totfact>
</mgrwt>
</event>
<event>
 4    1  0.7424968E+004  0.2133918E+02  0.7546771E-02  0.1719938E+00
         21   -1    0    0  501  502  0.00000000000E+00  0.00000000000E+00  0.21994487919E+03  0.21994487919E+03  0.00000000000E+00 0.  1.
         21   -1    0    0  502  503 -0.00000000000E+00 -0.00000000000E+00 -0.21784772486E+01  0.21784772486E+01  0.00000000000E+00 0.  1.
          2    1    1    2  501    0 -0.10627768302E+02  0.18504351356E+02  0.13362761811E+03  0.13532073308E+03  0.00000000000E+00 0.  1.
         -2    1    1    2    0  503  0.10627768302E+02 -0.18504351356E+02  0.84138783824E+02  0.86802623356E+02  0.00000000000E+00 0. -1.
<mgrwt>
<rscale>  2 0.21339177E+02</rscale>
<asrwt>0</asrwt>
<pdfrwt beam="1">  1       21 0.33837656E-01 0.21339177E+02</pdfrwt>
<pdfrwt beam="2">  1       21 0.33515052E-03 0.21339177E+02</pdfrwt>
<totfact> 0.11865140E+08</totfact>
</mgrwt>
</event>
<event>
 4    1  0.7424968E+004  0.2610774E+02  0.7546771E-02  0.1645583E+00
         21   -1    0    0  501  502  0.00000000000E+00  0.00000000000E+00  0.30006020888E+02  0.30006020888E+02  0.00000000000E+00 0.  1.
         21   -1    0    0  502  503 -0.00000000000E+00 -0.00000000000E+00 -0.26835263951E+02  0.26835263951E+02  0.00000000000E+00 0.  1.
          2    1    1    2  501    0 -0.22768242432E+02  0.12775801185E+02 -0.95497621027E+01  0.27799494880E+02  0.00000000000E+00 0. -1.
         -2    1    1    2    0  503  0.22768242432E+02 -0.12775801185E+02  0.12720519040E+02  0.29041789959E+02  0.00000000000E+00 0.  1.
<mgrwt>
<rscale>  2 0.26107738E+02</rscale>
<asrwt>0</asrwt>
<pdfrwt beam="1">  1       21 0.46163109E-02 0.26107738E+02</pdfrwt>
<pdfrwt beam="2">  1       21 0.41285021E-02 0.26107738E+02</pdfrwt>
<totfact> 0.81605919E+07</totfact>
</mgrwt>
</event>
<event>
 4    1  0.7424968E+004  0.3119069E+02  0.7546771E-02  0.1585288E+00
         21   -1    0    0  503  502  0.00000000000E+00  0.00000000000E+00  0.72660092317E+02  0.72660092317E+02  0.00000000000E+00 0. -1.
         21   -1    0    0  501  503 -0.00000000000E+00 -0.00000000000E+00 -0.13593999824E+02  0.13593999824E+02  0.00000000000E+00 0. -1.
          3    1    1    2  501    0 -0.30469175247E+01 -0.31041508531E+02  0.24239295532E+02  0.39501929145E+02  0.00000000000E+00 0.  1.
         -3    1    1    2    0  502  0.30469175247E+01  0.31041508531E+02  0.34826796961E+02  0.46752162996E+02  0.00000000000E+00 0. -1.
<mgrwt>
<rscale>  2 0.31190687E+02</rscale>
<asrwt>0</asrwt>
<pdfrwt beam="1">  1       21 0.11178475E-01 0.31190687E+02</pdfrwt>
<pdfrwt beam="2">  1       21 0.20913846E-02 0.31190687E+02</pdfrwt>
<totfact> 0.58193239E+07</totfact>
</mgrwt>
</event>
<event>
 4    1  0.7424968E+004  0.2078559E+02  0.7546771E-02  0.1730142E+00
         21   -1    0    0  503  502  0.00000000000E+00  0.00000000000E+00  0.87021237718E+02  0.87021237718E+02  0.00000000000E+00 0.  1.
         21   -1    0    0  501  503 -0.00000000000E+00 -0.00000000000E+00 -0.55253914457E+01  0.55253914457E+01  0.00000000000E+00 0.  1.
          5    1    1    2  501    0  0.82355371170E+01 -0.19084463491E+02  0.55487404780E+02  0.59252788184E+02  0.00000000000E+00 0. -1.
         -5    1    1    2    0  502 -0.82355371170E+01  0.19084463491E+02  0.26008441492E+02  0.33293840980E+02  0.00000000000E+00 0.  1.
<mgrwt>
<rscale>  2 0.20785592E+02</rscale>
<asrwt>0</asrwt>
<pdfrwt beam="1">  1       21 0.13387882E-01 0.20785592E+02</pdfrwt>
<pdfrwt beam="2">  1       21 0.85006028E-03 0.20785592E+02</pdfrwt>
<totfact> 0.15171448E+08</totfact>
</mgrwt>
</event>
<event>
 4    1  0.7424968E+004  0.3217067E+02  0.7546771E-02  0.1575264E+00
         21   -1    0    0  503  502  0.00000000000E+00  0.00000000000E+00  0.33200796194E+02  0.33200796194E+02  0.00000000000E+00 0.  1.
         21   -1    0    0  501  503 -0.00000000000E+00 -0.00000000000E+00 -0.72156330879E+02  0.72156330879E+02  0.00000000000E+00 0.  1.
          3    1    1    2  501    0 -0.31640336686E+02 -0.58173178673E+01  0.20223368768E+02  0.37999167584E+02  0.00000000000E+00 0.  1.
         -3    1    1    2    0  502  0.31640336686E+02  0.58173178673E+01 -0.59178903453E+02  0.67357959490E+02  0.00000000000E+00 0. -1.
<mgrwt>
<rscale>  2 0.32170671E+02</rscale>
<asrwt>0</asrwt>
<pdfrwt beam="1">  1       21 0.51078149E-02 0.32170671E+02</pdfrwt>
<pdfrwt beam="2">  1       21 0.11100974E-01 0.32170671E+02</pdfrwt>
<totfact> 0.14424759E+07</totfact>
</mgrwt>
</event>
<event>
 4    1  0.7424968E+004  0.2280684E+02  0.7546771E-02  0.1694660E+00
         21   -1    0    0  501  502  0.00000000000E+00  0.00000000000E+00  0.13052484697E+02  0.13052484697E+02  0.00000000000E+00 0.  1.
         21   -1    0    0  502  503 -0.00000000000E+00 -0.00000000000E+00 -0.40172066966E+02  0.40172066966E+02  0.00000000000E+00 0.  1.
          1    1    1    2  501    0  0.14152369597E+01  0.22762885754E+02 -0.15939686232E+02  0.27824907200E+02  0.00000000000E+00 0. -1.
         -1    1    1    2    0  503 -0.14152369597E+01 -0.22762885754E+02 -0.11179896036E+02  0.25399644463E+02  0.00000000000E+00 0.  1.
<mgrwt>
<rscale>  2 0.22806838E+02</rscale>
<asrwt>0</asrwt>
<pdfrwt beam="1">  1       21 0.20080746E-02 0.22806838E+02</pdfrwt>
<pdfrwt beam="2">  1       21 0.61803180E-02 0.22806838E+02</pdfrwt>
<totfact> 0.15147116E+08</totfact>
</mgrwt>
</event>
<event>
 4    1  0.7424968E+004  0.2937362E+02  0.7546771E-02  0.1605117E+00
         21   -1    0    0  501  502  0.00000000000E+00  0.00000000000E+00  0.68675871203E+02  0.68675871203E+02  0.00000000000E+00 0.  1.
         21   -1    0    0  502  503 -0.00000000000E+00 -0.00000000000E+00 -0.17594769599E+02  0.17594769599E+02  0.00000000000E+00 0.  1.
          1    1    1    2  501    0  0.26306606497E+02 -0.13067969484E+02  0.48606959923E+02  0.56793009471E+02  0.00000000000E+00 0.  1.
         -1    1    1    2    0  503 -0.26306606497E+02  0.13067969484E+02  0.24741416807E+01  0.29477631331E+02  0.00000000000E+00 0. -1.
<mgrwt>
<rscale>  2 0.29373617E+02</rscale>
<asrwt>0</asrwt>
<pdfrwt beam="1">  1       21 0.10565519E-01 0.29373617E+02</pdfrwt>
<pdfrwt beam="2">  1       21 0.27068877E-02 0.29373617E+02</pdfrwt>
<totfact> 0.42245004E+07</totfact>
</mgrwt>
</event>
<event>
 4    1  0.7424968E+004  0.2035597E+02  0.7546771E-02  0.1738340E+00
         21   -1    0    0  501  502  0.00000000000E+00  0.00000000000E+00  0.38692778178E+01  0.38692778178E+01  0.00000000000E+00 0.  1.
         21   -1    0    0  502  503 -0.00000000000E+00 -0.00000000000E+00 -0.10714399864E+03  0.10714399864E+03  0.00000000000E+00 0.  1.
          2    1    1    2  501    0 -0.87140668197E+00  0.20337310542E+02 -0.52869701001E+02  0.56653074353E+02  0.00000000000E+00 0. -1.
         -2    1    1    2    0  503  0.87140668197E+00 -0.20337310542E+02 -0.50405019818E+02  0.54360202101E+02  0.00000000000E+00 0.  1.
<mgrwt>
<rscale>  2 0.20355971E+02</rscale>
<asrwt>0</asrwt>
<pdfrwt beam="1">  1       21 0.59527359E-03 0.20355971E+02</pdfrwt>
<pdfrwt beam="2">  1       21 0.16483690E-01 0.20355971E+02</pdfrwt>
<totfact> 0.17973522E+08</totfact>
</mgrwt>
</event>
<event>
 4    1  0.7424968E+004  0.2193322E+02  0.7546771E-02  0.1709409E+00
         21   -1    0    0  503  502  0.00000000000E+00  0.00000000000E+00  0.33331952212E+01  0.33331952212E+01  0.00000000000E+00 0.  1.
         21   -1    0    0  501  503 -0.00000000000E+00 -0.00000000000E+00 -0.16803166906E+03  0.16803166906E+03  0.00000000000E+00 0.  1.
          2    1    1    2  501    0  0.68342511813E+01 -0.20841283986E+02 -0.50166420774E+02  0.54751583362E+02  0.00000000000E+00 0. -1.
         -2    1    1    2    0  502 -0.68342511813E+01  0.20841283986E+02 -0.11453205307E+03  0.11661328092E+03  0.00000000000E+00 0.  1.
<mgrwt>
<rscale>  2 0.21933219E+02</rscale>
<asrwt>0</asrwt>
<pdfrwt beam="1">  1       21 0.51279932E-03 0.21933219E+02</pdfrwt>
<pdfrwt beam="2">  1       21 0.25851023E-01 0.21933219E+02</pdfrwt>
<totfact> 0.10441427E+08</totfact>
</mgrwt>
</event>
<event>
 4    1  0.7424968E+004  0.2729124E+02  0.7546771E-02  0.1630117E+00
         21   -1    0    0  503  502  0.00000000000E+00  0.00000000000E+00  0.46825587133E+01  0.46825587133E+01  0.00000000000E+00 0. -1.
         21   -1    0    0  501  503 -0.00000000000E+00 -0.00000000000E+00 -0.16938395965E+03  0.16938395965E+03  0.00000000000E+00 0. -1.
          1    1    1    2  501    0 -0.40327879069E+01 -0.26991637747E+02 -0.60864785673E+02  0.66703328415E+02  0.00000000000E+00 0.  1.
         -1    1    1    2    0  502  0.40327879069E+01  0.26991637747E+02 -0.10383661527E+03  0.10736318995E+03  0.00000000000E+00 0. -1.
<mgrwt>
<rscale>  2 0.27291242E+02</rscale>
<asrwt>0</asrwt>
<pdfrwt beam="1">  1       21 0.72039357E-03 0.27291242E+02</pdfrwt>
<pdfrwt beam="2">  1       21 0.26059073E-01 0.27291242E+02</pdfrwt>
<totfact> 0.65681807E+07</totfact>
</mgrwt>
</event>
<event>
 4    1  0.7424968E+004  0.2213354E+02  0.7546771E-02  0.1705953E+00
         21   -1    0    0  501  502  0.00000000000E+00  0.00000000000E+00  0.26150348574E+02  0.26150348574E+02  0.00000000000E+00 0. -1.
         21   -1    0    0  502  503 -0.00000000000E+00 -0.00000000000E+00 -0.19025817870E+02  0.19025817870E+02  0.00000000000E+00 0. -1.
          5    1    1    2  501    0 -0.94335696288E+01  0.20022519469E+02  0.63610264606E+01  0.23029463291E+02  0.00000000000E+00 0. -1.
         -5    1    1    2    0  503  0.94335696288E+01 -0.20022519469E+02  0.76350424415E+00  0.22146703153E+02  0.00000000000E+00 0.  1.
<mgrwt>
<rscale>  2 0.22133538E+02</rscale>
<asrwt>0</asrwt>
<pdfrwt beam="1">  1       21 0.40231306E-02 0.22133538E+02</pdfrwt>
<pdfrwt beam="2">  1       21 0.29270489E-02 0.22133538E+02</pdfrwt>
<totfact> 0.16606046E+08</totfact>
</mgrwt>
</event>
<event>
 4    1  0.7424968E+004  0.2362753E+02  0.7546771E-02  0.1681535E+00
         21   -1    0    0  501  502  0.00000000000E+00  0.00000000000E+00  0.10815264785E+01  0.10815264785E+01  0.00000000000E+00 0. -1.
         21   -1    0    0  502  503 -0.00000000000E+00 -0.00000000000E+00 -0.60510711350E+03  0.60510711350E+03  0.00000000000E+00 0. -1.
          5    1    1    2  501    0  0.23572248965E+02  0.16152819616E+01 -0.18581873657E+03  0.18731487639E+03  0.00000000000E+00 0. -1.
         -5    1    1    2    0  503 -0.23572248965E+02 -0.16152819616E+01 -0.41820685045E+03  0.41887376359E+03  0.00000000000E+00 0.  1.
<mgrwt>
<rscale>  2 0.23627528E+02</rscale>
<asrwt>0</asrwt>
<pdfrwt beam="1">  1       21 0.16638880E-03 0.23627528E+02</pdfrwt>
<pdfrwt beam="2">  1       21 0.93093341E-01 0.23627528E+02</pdfrwt>
<totfact> 0.45073912E+07</totfact>
</mgrwt>
</event>
<event>
 4    1  0.7424968E+004  0.2108481E+02  0.7546771E-02  0.1724578E+00
         21   -1    0    0  501  502  0.00000000000E+00  0.00000000000E+00  0.21547238059E+02  0.21547238059E+02  0.00000000000E+00 0. -1.
         21   -1    0    0  502  503 -0.00000000000E+00 -0.00000000000E+00 -0.20755804746E+02  0.20755804746E+02  0.00000000000E+00 0. -1.
          3    1    1    2  501    0 -0.90028337118E+01  0.19066153208E+02  0.20272756364E+01  0.21182045687E+02  0.00000000000E+00 0. -1.
         -3    1    1    2    0  503  0.90028337118E+01 -0.19066153208E+02 -0.12358423230E+01  0.21120997117E+02  0.00000000000E+00 0.  1.
<mgrwt>
<rscale>  2 0.21084810E+02</rscale>
<asrwt>0</asrwt>
<pdfrwt beam="1">  1       21 0.33149597E-02 0.21084810E+02</pdfrwt>
<pdfrwt beam="2">  1       21 0.31932007E-02 0.21084810E+02</pdfrwt>
<totfact> 0.19342726E+08</totfact>
</mgrwt>
</event>
<event>
 4    1  0.7424968E+004  0.5737586E+02  0.7546771E-02  0.1409186E+00
         21   -1    0    0  503  502  0.00000000000E+00  0.00000000000E+00  0.31807175367E+03  0.31807175367E+03  0.00000000000E+00 0. -1.
         21   -1    0    0  501  503 -0.00000000000E+00 -0.00000000000E+00 -0.10351743726E+02  0.10351743726E+02  0.00000000000E+00 0. -1.
          3    1    1    2  501    0  0.43878853091E+01 -0.57207825939E+02  0.15609217606E+03  0.16630320596E+03  0.00000000000E+00 0. -1.
         -3    1    1    2    0  502 -0.43878853091E+01  0.57207825939E+02  0.15162783388E+03  0.16212029143E+03  0.00000000000E+00 0.  1.
<mgrwt>
<rscale>  2 0.57375856E+02</rscale>
<asrwt>0</asrwt>
<pdfrwt beam="1">  1       21 0.48934108E-01 0.57375856E+02</pdfrwt>
<pdfrwt beam="2">  1       21 0.15925762E-02 0.57375856E+02</pdfrwt>
<totfact> 0.66068936E+06</totfact>
</mgrwt>
</event>
<event>
 4    1  0.7424968E+004  0.2810466E+02  0.7546771E-02  0.1620036E+00
         21   -1    0    0  501  502  0.00000000000E+00  0.00000000000E+00  0.48247462743E+00  0.48247462743E+00  0.00000000000E+00 0. -1.
         21   -1    0    0  502  503 -0.00000000000E+00 -0.00000000000E+00 -0.18129914662E+04  0.18129914662E+04  0.00000000000E+00 0. -1.
          1    1    1    2  501    0 -0.20891261535E+02 -0.18799659840E+02 -0.62384905621E+03  0.62448179873E+03  0.00000000000E+00 0. -1.
         -1    1    1    2    0  503  0.20891261535E+02  0.18799659840E+02 -0.11886599353E+04  0.11889921421E+04  0.00000000000E+00 0.  1.
<mgrwt>
<rscale>  2 0.28104662E+02</rscale>
<asrwt>0</asrwt>
<pdfrwt beam="1">  1       21 0.74225845E-04 0.28104662E+02</pdfrwt>
<pdfrwt beam="2">  1       21 0.27892560E+00 0.28104662E+02</pdfrwt>
<totfact> 0.94585886E+06</totfact>
</mgrwt>
</event>
<event>
 4    1  0.7424968E+004  0.3304994E+02  0.7546771E-02  0.1566632E+00
         21   -1    0    0  501  502  0.00000000000E+00  0.00000000000E+00  0.67165608371E+02  0.67165608371E+02  0.00000000000E+00 0. -1.
         21   -1    0    0  502  503 -0.00000000000E+00 -0.00000000000E+00 -0.19040923600E+02  0.19040923600E+02  0.00000000000E+00 0. -1.
          3    1    1    2  501    0 -0.29955609715E+02 -0.13962802025E+02  0.40526701120E+02  0.52294472915E+02  0.00000000000E+00 0. -1.
         -3    1    1    2    0  503  0.29955609715E+02  0.13962802025E+02  0.75979836518E+01  0.33912059056E+02  0.00000000000E+00 0.  1.
<mgrwt>
<rscale>  2 0.33049938E+02</rscale>
<asrwt>0</asrwt>
<pdfrwt beam="1">  1       21 0.10333170E-01 0.33049938E+02</pdfrwt>
<pdfrwt beam="2">  1       21 0.29293729E-02 0.33049938E+02</pdfrwt>
<totfact> 0.39692743E+07</totfact>
</mgrwt>
</event>
<event>
 4    1  0.7424968E+004  0.5465213E+02  0.7546771E-02  0.1421751E+00
         21   -1    0    0  501  502  0.00000000000E+00  0.00000000000E+00  0.88088076777E+02  0.88088076777E+02  0.00000000000E+00 0.  1.
         21   -1    0    0  502  503 -0.00000000000E+00 -0.00000000000E+00 -0.36681312869E+02  0.36681312869E+02  0.00000000000E+00 0.  1.
          4    1    1    2  501    0  0.58488709826E+01  0.54338255410E+02  0.42858209310E+02  0.69452727794E+02  0.00000000000E+00 0.  1.
         -4    1    1    2    0  503 -0.58488709826E+01 -0.54338255410E+02  0.85485545984E+01  0.55316661852E+02  0.00000000000E+00 0. -1.
<mgrwt>
<rscale>  2 0.54652130E+02</rscale>
<asrwt>0</asrwt>
<pdfrwt beam="1">  1       21 0.13552012E-01 0.54652130E+02</pdfrwt>
<pdfrwt beam="2">  1       21 0.56432789E-02 0.54652130E+02</pdfrwt>
<totfact> 0.93685553E+06</totfact>
</mgrwt>
</event>
<event>
 4    1  0.7424968E+004  0.2670603E+02  0.7546771E-02  0.1637641E+00
         21   -1    0    0  503  502  0.00000000000E+00  0.00000000000E+00  0.48156747707E+02  0.48156747707E+02  0.00000000000E+00 0.  1.
         21   -1    0    0  501  503 -0.00000000000E+00 -0.00000000000E+00 -0.19890435898E+02  0.19890435898E+02  0.00000000000E+00 0.  1.
          5    1    1    2  501    0 -0.25835289777E+02  0.67638823098E+01 -0.30617122676E+01  0.26880966943E+02  0.00000000000E+00 0. -1.
         -5    1    1    2    0  502  0.25835289777E+02 -0.67638823098E+01  0.31328024077E+02  0.41166216662E+02  0.00000000000E+00 0.  1.
<mgrwt>
<rscale>  2 0.26706035E+02</rscale>
<asrwt>0</asrwt>
<pdfrwt beam="1">  1       21 0.74087304E-02 0.26706035E+02</pdfrwt>
<pdfrwt beam="2">  1       21 0.30600671E-02 0.26706035E+02</pdfrwt>
<totfact> 0.61339567E+07</totfact>
</mgrwt>
</event>
<event>
 4    1  0.7424968E+004  0.2147671E+02  0.7546771E-02  0.1717462E+00
         21   -1    0    0  503  502  0.00000000000E+00  0.00000000000E+00  0.26099859855E+01  0.26099859855E+01  0.00000000000E+00 0.  1.
         21   -1    0    0  501  503 -0.00000000000E+00 -0.00000000000E+00 -0.27784625986E+03  0.27784625986E+03  0.00000000000E+00 0.  1.
          5    1    1    2  501    0 -0.21002986730E+02 -0.44859587447E+01 -0.53021229507E+02  0.57205769428E+02  0.00000000000E+00 0. -1.
         -5    1    1    2    0  502  0.21002986730E+02  0.44859587447E+01 -0.22221504437E+03  0.22325047642E+03  0.00000000000E+00 0.  1.
<mgrwt>
<rscale>  2 0.21476715E+02</rscale>
<asrwt>0</asrwt>
<pdfrwt beam="1">  1       21 0.40153619E-03 0.21476715E+02</pdfrwt>
<pdfrwt beam="2">  1       21 0.42745590E-01 0.21476715E+02</pdfrwt>
<totfact> 0.59018956E+07</totfact>
</mgrwt>
</event>
<event>
 4    1  0.7424968E+004  0.2451931E+02  0.7546771E-02  0.1668004E+00
         21   -1    0    0  503  502  0.00000000000E+00  0.00000000000E+00  0.10165271222E+02  0.10165271222E+02  0.00000000000E+00 0.  1.
         21   -1    0    0  501  503 -0.00000000000E+00 -0.00000000000E+00 -0.66884881930E+02  0.66884881930E+02  0.00000000000E+00 0.  1.
          4    1    1    2  501    0 -0.15827975120E+02  0.18726226620E+02 -0.15252131266E+02  0.28876008519E+02  0.00000000000E+00 0.  1.
         -4    1    1    2    0  502  0.15827975120E+02 -0.18726226620E+02 -0.41467479442E+02  0.48174144633E+02  0.00000000000E+00 0. -1.
<mgrwt>
<rscale>  2 0.24519306E+02</rscale>
<asrwt>0</asrwt>
<pdfrwt beam="1">  1       21 0.15638879E-02 0.24519306E+02</pdfrwt>
<pdfrwt beam="2">  1       21 0.10289982E-01 0.24519306E+02</pdfrwt>
<totfact> 0.98593200E+07</totfact>
</mgrwt>
</event>
<event>
 4    1  0.7424968E+004  0.2126731E+02  0.7546771E-02  0.1721240E+00
         21   -1    0    0  503  502  0.00000000000E+00  0.00000000000E+00  0.18700200381E+02  0.18700200381E+02  0.00000000000E+00 0. -1.
         21   -1    0    0  501  503 -0.00000000000E+00 -0.00000000000E+00 -0.24277325547E+02  0.24277325547E+02  0.00000000000E+00 0. -1.
          5    1    1    2  501    0  0.11403626291E+02 -0.17951485689E+02 -0.41005488432E+01  0.21659017334E+02  0.00000000000E+00 0.  1.
         -5    1    1    2    0  502 -0.11403626291E+02  0.17951485689E+02 -0.14765763224E+01  0.21318508594E+02  0.00000000000E+00 0. -1.
<mgrwt>
<rscale>  2 0.21267311E+02</rscale>
<asrwt>0</asrwt>
<pdfrwt beam="1">  1       21 0.28769539E-02 0.21267311E+02</pdfrwt>
<pdfrwt beam="2">  1       21 0.37349732E-02 0.21267311E+02</pdfrwt>
<totfact> 0.18928438E+08</totfact>
</mgrwt>
</event>
<event>
 4    1  0.7424968E+004  0.2803251E+02  0.7546771E-02  0.1620914E+00
         21   -1    0    0  503  502  0.00000000000E+00  0.00000000000E+00  0.35818060135E+02  0.35818060135E+02  0.00000000000E+00 0. -1.
         21   -1    0    0  501  503 -0.00000000000E+00 -0.00000000000E+00 -0.25966341680E+02  0.25966341680E+02  0.00000000000E+00 0. -1.
          2    1    1    2  501    0 -0.17368845509E+02  0.22003292795E+02 -0.72398870569E+01  0.28952334150E+02  0.00000000000E+00 0. -1.
         -2    1    1    2    0  502  0.17368845509E+02 -0.22003292795E+02  0.17091605513E+02  0.32832067665E+02  0.00000000000E+00 0.  1.
<mgrwt>
<rscale>  2 0.28032511E+02</rscale>
<asrwt>0</asrwt>
<pdfrwt beam="1">  1       21 0.55104708E-02 0.28032511E+02</pdfrwt>
<pdfrwt beam="2">  1       21 0.39948218E-02 0.28032511E+02</pdfrwt>
<totfact> 0.65904751E+07</totfact>
</mgrwt>
</event>
<event>
 4    1  0.7424968E+004  0.2087309E+02  0.7546771E-02  0.1728503E+00
         21   -1    0    0  501  502  0.00000000000E+00  0.00000000000E+00  0.18839686686E+02  0.18839686686E+02  0.00000000000E+00 0. -1.
         21   -1    0    0  502  503 -0.00000000000E+00 -0.00000000000E+00 -0.32133971623E+02  0.32133971623E+02  0.00000000000E+00 0. -1.
          5    1    1    2  501    0  0.20628780289E+02  0.31842366118E+01 -0.20141367494E+02  0.29006216981E+02  0.00000000000E+00 0. -1.
         -5    1    1    2    0  503 -0.20628780289E+02 -0.31842366118E+01  0.68470825568E+01  0.21967441329E+02  0.00000000000E+00 0.  1.
<mgrwt>
<rscale>  2 0.20873091E+02</rscale>
<asrwt>0</asrwt>
<pdfrwt beam="1">  1       21 0.28984133E-02 0.20873091E+02</pdfrwt>
<pdfrwt beam="2">  1       21 0.49436880E-02 0.20873091E+02</pdfrwt>
<totfact> 0.11961067E+08</totfact>
</mgrwt>
</event>
<event>
 4    1  0.7424968E+004  0.2165202E+02  0.7546771E-02  0.1714340E+00
         21   -1    0    0  501  502  0.00000000000E+00  0.00000000000E+00  0.27242258901E+02  0.27242258901E+02  0.00000000000E+00 0. -1.
         21   -1    0    0  502  503 -0.00000000000E+00 -0.00000000000E+00 -0.22508369347E+02  0.22508369347E+02  0.00000000000E+00 0. -1.
          2    1    1    2  501    0  0.18976448566E+02 -0.10426147783E+02  0.14437061589E+02  0.26023814192E+02  0.00000000000E+00 0. -1.
         -2    1    1    2    0  503 -0.18976448566E+02  0.10426147783E+02 -0.97031720346E+01  0.23726814057E+02  0.00000000000E+00 0.  1.
<mgrwt>
<rscale>  2 0.21652024E+02</rscale>
<asrwt>0</asrwt>
<pdfrwt beam="1">  1       21 0.41911168E-02 0.21652024E+02</pdfrwt>
<pdfrwt beam="2">  1       21 0.34628260E-02 0.21652024E+02</pdfrwt>
<totfact> 0.11902717E+08</totfact>
</mgrwt>
</event>
<event>
 4    1  0.7424968E+004  0.2194402E+02  0.7546771E-02  0.1709222E+00
         21   -1    0    0  503  502  0.00000000000E+00  0.00000000000E+00  0.15197025013E+02  0.15197025013E+02  0.00000000000E+00 0.  1.
         21   -1    0    0  501  503 -0.00000000000E+00 -0.00000000000E+00 -0.37182186737E+02  0.37182186737E+02  0.00000000000E+00 0.  1.
          5    1    1    2  501    0  0.14790244591E+02  0.16210762062E+02 -0.21061283181E+02  0.30415749061E+02  0.00000000000E+00 0. -1.
         -5    1    1    2    0  502 -0.14790244591E+02 -0.16210762062E+02 -0.92387854360E+00  0.21963462689E+02  0.00000000000E+00 0.  1.
<mgrwt>
<rscale>  2 0.21944023E+02</rscale>
<asrwt>0</asrwt>
<pdfrwt beam="1">  1       21 0.23380038E-02 0.21944023E+02</pdfrwt>
<pdfrwt beam="2">  1       21 0.57203364E-02 0.21944023E+02</pdfrwt>
<totfact> 0.13414281E+08</totfact>
</mgrwt>
</event>
<event>
 4    1  0.7424968E+004  0.5392348E+02  0.7546771E-02  0.1425260E+00
         21   -1    0    0  501  502  0.00000000000E+00  0.00000000000E+00  0.15774168416E+03  0.15774168416E+03  0.00000000000E+00 0. -1.
         21   -1    0    0  502  503 -0.00000000000E+00 -0.00000000000E+00 -0.23746810380E+02  0.23746810380E+02  0.00000000000E+00 0. -1.
          3    1    1    2  501    0  0.51356386903E+02 -0.16439667992E+02  0.10992107336E+03  0.12243522176E+03  0.00000000000E+00 0. -1.
         -3    1    1    2    0  503 -0.51356386903E+02  0.16439667992E+02  0.24073800427E+02  0.59053272783E+02  0.00000000000E+00 0.  1.
<mgrwt>
<rscale>  2 0.53923475E+02</rscale>
<asrwt>0</asrwt>
<pdfrwt beam="1">  1       21 0.24267951E-01 0.53923475E+02</pdfrwt>
<pdfrwt beam="2">  1       21 0.36533555E-02 0.53923475E+02</pdfrwt>
<totfact> 0.67163834E+06</totfact>
</mgrwt>
</event>
<event>
 4    1  0.7424968E+004  0.2377474E+02  0.7546771E-02  0.1679251E+00
         21   -1    0    0  503  502  0.00000000000E+00  0.00000000000E+00  0.25869396148E+04  0.25869396148E+04  0.00000000000E+00 0.  1.
         21   -1    0    0  501  503 -0.00000000000E+00 -0.00000000000E+00 -0.23292352046E+00  0.23292352046E+00  0.00000000000E+00 0.  1.
          2    1    1    2  501    0 -0.78266530585E+01 -0.22449543383E+02  0.97141715101E+03  0.97170804246E+03  0.00000000000E+00 0.  1.
         -2    1    1    2    0  502  0.78266530585E+01  0.22449543383E+02  0.16152895402E+04  0.16154644958E+04  0.00000000000E+00 0. -1.
<mgrwt>
<rscale>  2 0.23774745E+02</rscale>
<asrwt>0</asrwt>
<pdfrwt beam="1">  1       21 0.39796770E+00 0.23774745E+02</pdfrwt>
<pdfrwt beam="2">  1       21 0.35836460E-04 0.23774745E+02</pdfrwt>
<totfact> 0.66296118E+06</totfact>
</mgrwt>
</event>
<event>
 4    1  0.7424968E+004  0.2056300E+02  0.7546771E-02  0.1734358E+00
         21   -1    0    0  503  502  0.00000000000E+00  0.00000000000E+00  0.69503394925E+02  0.69503394925E+02  0.00000000000E+00 0. -1.
         21   -1    0    0  501  503 -0.00000000000E+00 -0.00000000000E+00 -0.73172593060E+01  0.73172593060E+01  0.00000000000E+00 0. -1.
          5    1    1    2  501    0 -0.99432771814E+01 -0.17999119005E+02  0.15322195376E+02  0.25643843650E+02  0.00000000000E+00 0. -1.
         -5    1    1    2    0  502  0.99432771814E+01  0.17999119005E+02  0.46863940244E+02  0.51176810581E+02  0.00000000000E+00 0.  1.
<mgrwt>
<rscale>  2 0.20563002E+02</rscale>
<asrwt>0</asrwt>
<pdfrwt beam="1">  1       21 0.10692830E-01 0.20563002E+02</pdfrwt>
<pdfrwt beam="2">  1       21 0.11257323E-02 0.20563002E+02</pdfrwt>
<totfact> 0.14450976E+08</totfact>
</mgrwt>
</event>
<event>
 4    1  0.7424968E+004  0.2627727E+02  0.7546771E-02  0.1643306E+00
         21   -1    0    0  503  502  0.00000000000E+00  0.00000000000E+00  0.13224414234E+02  0.13224414234E+02  0.00000000000E+00 0.  1.
         21   -1    0    0  501  503 -0.00000000000E+00 -0.00000000000E+00 -0.90007591759E+02  0.90007591759E+02  0.00000000000E+00 0.  1.
          4    1    1    2  501    0  0.23215035255E+02  0.12310859663E+02 -0.49446933904E+01  0.26738457701E+02  0.00000000000E+00 0. -1.
         -4    1    1    2    0  502 -0.23215035255E+02 -0.12310859663E+02 -0.71838484134E+02  0.76493548292E+02  0.00000000000E+00 0.  1.
<mgrwt>
<rscale>  2 0.26277274E+02</rscale>
<asrwt>0</asrwt>
<pdfrwt beam="1">  1       21 0.20345254E-02 0.26277274E+02</pdfrwt>
<pdfrwt beam="2">  1       21 0.13847321E-01 0.26277274E+02</pdfrwt>
<totfact> 0.40660341E+07</totfact>
</mgrwt>
</event>
<event>
 4    1  0.7424968E+004  0.2034723E+02  0.7546771E-02  0.1738510E+00
         21   -1    0    0  501  502  0.00000000000E+00  0.00000000000E+00  0.36268758871E+02  0.36268758871E+02  0.00000000000E+00 0. -1.
         21   -1    0    0  502  503 -0.00000000000E+00 -0.00000000000E+00 -0.11485711978E+02  0.11485711978E+02  0.00000000000E+00 0. -1.
          4    1    1    2  501    0 -0.19244907506E+02 -0.66063173880E+01  0.14264279303E+02  0.24849135969E+02  0.00000000000E+00 0.  1.
         -4    1    1    2    0  503  0.19244907506E+02  0.66063173880E+01  0.10518767590E+02  0.22905334880E+02  0.00000000000E+00 0. -1.
<mgrwt>
<rscale>  2 0.20347233E+02</rscale>
<asrwt>0</asrwt>
<pdfrwt beam="1">  1       21 0.55798090E-02 0.20347233E+02</pdfrwt>
<pdfrwt beam="2">  1       21 0.17670326E-02 0.20347233E+02</pdfrwt>
<totfact> 0.20922848E+08</totfact>
</mgrwt>
</event>
<event>
 4    1  0.7424968E+004  0.2338614E+02  0.7546771E-02  0.1685326E+00
         21   -1    0    0  503  502  0.00000000000E+00  0.00000000000E+00  0.94813454230E+01  0.94813454230E+01  0.00000000000E+00 0.  1.
         21   -1    0    0  501  503 -0.00000000000E+00 -0.00000000000E+00 -0.58258517976E+02  0.58258517976E+02  0.00000000000E+00 0.  1.
          1    1    1    2  501    0  0.20339472660E+01 -0.23297521533E+02 -0.21021891683E+02  0.31445689387E+02  0.00000000000E+00 0. -1.
         -1    1    1    2    0  502 -0.20339472660E+01  0.23297521533E+02 -0.27755280870E+02  0.36294174013E+02  0.00000000000E+00 0.  1.
<mgrwt>
<rscale>  2 0.23386138E+02</rscale>
<asrwt>0</asrwt>
<pdfrwt beam="1">  1       21 0.14586686E-02 0.23386138E+02</pdfrwt>
<pdfrwt beam="2">  1       21 0.89628487E-02 0.23386138E+02</pdfrwt>
<totfact> 0.13587119E+08</totfact>
</mgrwt>
</event>
<event>
 4    1  0.7424968E+004  0.5986068E+02  0.7546771E-02  0.1398417E+00
         21   -1    0    0  503  502  0.00000000000E+00  0.00000000000E+00  0.14668723905E+02  0.14668723905E+02  0.00000000000E+00 0.  1.
         21   -1    0    0  501  503 -0.00000000000E+00 -0.00000000000E+00 -0.24563910234E+03  0.24563910234E+03  0.00000000000E+00 0.  1.
          2    1    1    2  501    0  0.59754505445E+02  0.35636530745E+01 -0.10580986116E+03  0.12156902262E+03  0.00000000000E+00 0. -1.
         -2    1    1    2    0  502 -0.59754505445E+02 -0.35636530745E+01 -0.12516051728E+03  0.13873880362E+03  0.00000000000E+00 0.  1.
<mgrwt>
<rscale>  2 0.59860676E+02</rscale>
<asrwt>0</asrwt>
<pdfrwt beam="1">  1       21 0.22567268E-02 0.59860676E+02</pdfrwt>
<pdfrwt beam="2">  1       21 0.37790631E-01 0.59860676E+02</pdfrwt>
<totfact> 0.63679166E+06</totfact>
</mgrwt>
</event>
<event>
 4    1  0.7424968E+004  0.2481647E+02  0.7546771E-02  0.1663652E+00
         21   -1    0    0  503  502  0.00000000000E+00  0.00000000000E+00  0.63955963967E+02  0.63955963967E+02  0.00000000000E+00 0.  1.
         21   -1    0    0  501  503 -0.00000000000E+00 -0.00000000000E+00 -0.96316013121E+01  0.96316013121E+01  0.00000000000E+00 0.  1.
          5    1    1    2  501    0  0.24357288685E+02  0.47517836976E+01  0.27719608237E+02  0.37205290501E+02  0.00000000000E+00 0.  1.
         -5    1    1    2    0  502 -0.24357288685E+02 -0.47517836976E+01  0.26604754417E+02  0.36382274778E+02  0.00000000000E+00 0. -1.
<mgrwt>
<rscale>  2 0.24816466E+02</rscale>
<asrwt>0</asrwt>
<pdfrwt beam="1">  1       21 0.98393788E-02 0.24816466E+02</pdfrwt>
<pdfrwt beam="2">  1       21 0.14817849E-02 0.24816466E+02</pdfrwt>
<totfact> 0.11567039E+08</totfact>
</mgrwt>
</event>
<event>
 4    1  0.7424968E+004  0.2049853E+02  0.7546771E-02  0.1735592E+00
         21   -1    0    0  501  502  0.00000000000E+00  0.00000000000E+00  0.15196309831E+03  0.15196309831E+03  0.00000000000E+00 0.  1.
         21   -1    0    0  502  503 -0.00000000000E+00 -0.00000000000E+00 -0.28538280837E+01  0.28538280837E+01  0.00000000000E+00 0.  1.
          2    1    1    2  501    0  0.17841889489E+02 -0.10092411181E+02  0.88205479200E+02  0.90556039803E+02  0.00000000000E+00 0.  1.
         -2    1    1    2    0  503 -0.17841889489E+02  0.10092411181E+02  0.60903791024E+02  0.64260886588E+02  0.00000000000E+00 0. -1.
<mgrwt>
<rscale>  2 0.20498531E+02</rscale>
<asrwt>0</asrwt>
<pdfrwt beam="1">  1       21 0.23378932E-01 0.20498531E+02</pdfrwt>
<pdfrwt beam="2">  1       21 0.43905059E-03 0.20498531E+02</pdfrwt>
<totfact> 0.15373807E+08</totfact>
</mgrwt>
</event>
<event>
 4    1  0.7424968E+004  0.2367847E+02  0.7546771E-02  0.1680743E+00
         21   -1    0    0  503  502  0.00000000000E+00  0.00000000000E+00  0.26842514492E+02  0.26842514492E+02  0.00000000000E+00 0.  1.
         21   -1    0    0  501  503 -0.00000000000E+00 -0.00000000000E+00 -0.21063941480E+02  0.21063941480E+02  0.00000000000E+00 0.  1.
          5    1    1    2  501    0 -0.17219096400E+02 -0.16253385716E+02  0.50822981573E+01  0.24217753460E+02  0.00000000000E+00 0.  1.
         -5    1    1    2    0  502  0.17219096400E+02  0.16253385716E+02  0.69627485459E+00  0.23688702513E+02  0.00000000000E+00 0. -1.
<mgrwt>
<rscale>  2 0.23678468E+02</rscale>
<asrwt>0</asrwt>
<pdfrwt beam="1">  1       21 0.41296176E-02 0.23678468E+02</pdfrwt>
<pdfrwt beam="2">  1       21 0.32406064E-02 0.23678468E+02</pdfrwt>
<totfact> 0.13881635E+08</totfact>
</mgrwt>
</event>
<event>
 4    1  0.7424968E+004  0.2613749E+02  0.7546771E-02  0.1645182E+00
         21   -1    0    0  501  502  0.00000000000E+00  0.00000000000E+00  0.21363356006E+01  0.21363356006E+01  0.00000000000E+00 0.  1.
         21   -1    0    0  502  503 -0.00000000000E+00 -0.00000000000E+00 -0.38002741513E+03  0.38002741513E+03  0.00000000000E+00 0.  1.
          1    1    1    2  501    0 -0.24093513487E+02  0.10132662823E+02 -0.26502421384E+03  0.26630997384E+03  0.00000000000E+00 0.  1.
         -1    1    1    2    0  503  0.24093513487E+02 -0.10132662823E+02 -0.11286686569E+03  0.11585377689E+03  0.00000000000E+00 0. -1.
<mgrwt>
<rscale>  2 0.26137487E+02</rscale>
<asrwt>0</asrwt>
<pdfrwt beam="1">  1       21 0.32866715E-03 0.26137487E+02</pdfrwt>
<pdfrwt beam="2">  1       21 0.58465732E-01 0.26137487E+02</pdfrwt>
<totfact> 0.45016098E+07</totfact>
</mgrwt>
</event>
<event>
 4    1  0.7424968E+004  0.2254136E+02  0.7546771E-02  0.1699054E+00
         21   -1    0    0  503  502  0.00000000000E+00  0.00000000000E+00  0.15615429609E+02  0.15615429609E+02  0.00000000000E+00 0.  1.
         21   -1    0    0  501  503 -0.00000000000E+00 -0.00000000000E+00 -0.36918832709E+02  0.36918832709E+02  0.00000000000E+00 0.  1.
          4    1    1    2  501    0 -0.22284703913E+02  0.33918863786E+01 -0.16045967680E+01  0.22598399334E+02  0.00000000000E+00 0. -1.
         -4    1    1    2    0  502  0.22284703913E+02 -0.33918863786E+01 -0.19698806333E+02  0.29935862984E+02  0.00000000000E+00 0.  1.
<mgrwt>
<rscale>  2 0.22541360E+02</rscale>
<asrwt>0</asrwt>
<pdfrwt beam="1">  1       21 0.24023738E-02 0.22541360E+02</pdfrwt>
<pdfrwt beam="2">  1       21 0.56798204E-02 0.22541360E+02</pdfrwt>
<totfact> 0.13116990E+08</totfact>
</mgrwt>
</event>
<event>
 4    1  0.7424968E+004  0.2862204E+02  0.7546771E-02  0.1613839E+00
         21   -1    0    0  501  502  0.00000000000E+00  0.00000000000E+00  0.39216199242E+00  0.39216199242E+00  0.00000000000E+00 0.  1.
         21   -1    0    0  502  503 -0.00000000000E+00 -0.00000000000E+00 -0.21070028179E+04  0.21070028179E+04  0.00000000000E+00 0.  1.
          2    1    1    2  501    0  0.10537501832E+02 -0.26611689646E+02 -0.95586906353E+03  0.95629748906E+03  0.00000000000E+00 0. -1.
         -2    1    1    2    0  503 -0.10537501832E+02  0.26611689646E+02 -0.11507415924E+04  0.11510974909E+04  0.00000000000E+00 0.  1.
<mgrwt>
<rscale>  2 0.28622036E+02</rscale>
<asrwt>0</asrwt>
<pdfrwt beam="1">  1       21 0.60335123E-04 0.28622036E+02</pdfrwt>
<pdfrwt beam="2">  1       21 0.32414080E+00 0.28622036E+02</pdfrwt>
<totfact> 0.75845652E+06</totfact>
</mgrwt>
</event>
<event>
 4    1  0.7424968E+004  0.2365659E+02  0.7546771E-02  0.1681083E+00
         21   -1    0    0  503  502  0.00000000000E+00  0.00000000000E+00  0.61766784225E+02  0.61766784225E+02  0.00000000000E+00 0.  1.
         21   -1    0    0  501  503 -0.00000000000E+00 -0.00000000000E+00 -0.10916155938E+02  0.10916155938E+02  0.00000000000E+00 0.  1.
          2    1    1    2  501    0  0.36688626794E+01  0.23370360258E+02  0.10441468824E+02  0.25858433114E+02  0.00000000000E+00 0.  1.
         -2    1    1    2    0  502 -0.36688626794E+01 -0.23370360258E+02  0.40409159463E+02  0.46824507049E+02  0.00000000000E+00 0. -1.
<mgrwt>
<rscale>  2 0.23656591E+02</rscale>
<asrwt>0</asrwt>
<pdfrwt beam="1">  1       21 0.95025820E-02 0.23656591E+02</pdfrwt>
<pdfrwt beam="2">  1       21 0.16794086E-02 0.23656591E+02</pdfrwt>
<totfact> 0.99886568E+07</totfact>
</mgrwt>
</event>
<event>
 4    1  0.7424968E+004  0.2501104E+02  0.7546771E-02  0.1660843E+00
         21   -1    0    0  503  502  0.00000000000E+00  0.00000000000E+00  0.20433590397E+03  0.20433590397E+03  0.00000000000E+00 0. -1.
         21   -1    0    0  501  503 -0.00000000000E+00 -0.00000000000E+00 -0.56433635276E+01  0.56433635276E+01  0.00000000000E+00 0. -1.
          1    1    1    2  501    0  0.23508869298E+02  0.85372736133E+01  0.17036178924E+03  0.17218795315E+03  0.00000000000E+00 0.  1.
         -1    1    1    2    0  502 -0.23508869298E+02 -0.85372736133E+01  0.28330751196E+02  0.37791314342E+02  0.00000000000E+00 0. -1.
<mgrwt>
<rscale>  2 0.25011037E+02</rscale>
<asrwt>0</asrwt>
<pdfrwt beam="1">  1       21 0.31436287E-01 0.25011037E+02</pdfrwt>
<pdfrwt beam="2">  1       21 0.86820993E-03 0.25011037E+02</pdfrwt>
<totfact> 0.34614022E+07</totfact>
</mgrwt>
</event>
<event>
 4    1  0.7424968E+004  0.2260358E+02  0.7546771E-02  0.1698018E+00
         21   -1    0    0  501  502  0.00000000000E+00  0.00000000000E+00  0.11527919247E+02  0.11527919247E+02  0.00000000000E+00 0.  1.
         21   -1    0    0  502  503 -0.00000000000E+00 -0.00000000000E+00 -0.44429371674E+02  0.44429371674E+02  0.00000000000E+00 0.  1.
          3    1    1    2  501    0  0.66081505260E+01 -0.21616060254E+02 -0.17836513094E+02  0.28793452617E+02  0.00000000000E+00 0.  1.
         -3    1    1    2    0  503 -0.66081505260E+01  0.21616060254E+02 -0.15064939333E+02  0.27163838303E+02  0.00000000000E+00 0. -1.
<mgrwt>
<rscale>  2 0.22603577E+02</rscale>
<asrwt>0</asrwt>
<pdfrwt beam="1">  1       21 0.17735261E-02 0.22603577E+02</pdfrwt>
<pdfrwt beam="2">  1       21 0.68352878E-02 0.22603577E+02</pdfrwt>
<totfact> 0.15530114E+08</totfact>
</mgrwt>
</event>
<event>
 4    1  0.7424968E+004  0.2178136E+02  0.7546771E-02  0.1712061E+00
         21   -1    0    0  501  502  0.00000000000E+00  0.00000000000E+00  0.14187395905E+02  0.14187395905E+02  0.00000000000E+00 0.  1.
         21   -1    0    0  502  503 -0.00000000000E+00 -0.00000000000E+00 -0.36721473968E+02  0.36721473968E+02  0.00000000000E+00 0.  1.
          4    1    1    2  501    0 -0.20345549177E+02 -0.77772897796E+01 -0.36579474306E+01  0.22086380125E+02  0.00000000000E+00 0. -1.
         -4    1    1    2    0  503  0.20345549177E+02  0.77772897796E+01 -0.18876130633E+02  0.28822489748E+02  0.00000000000E+00 0.  1.
<mgrwt>
<rscale>  2 0.21781359E+02</rscale>
<asrwt>0</asrwt>
<pdfrwt beam="1">  1       21 0.21826763E-02 0.21781359E+02</pdfrwt>
<pdfrwt beam="2">  1       21 0.56494574E-02 0.21781359E+02</pdfrwt>
<totfact> 0.15175929E+08</totfact>
</mgrwt>
</event>
<event>
 4    1  0.7424968E+004  0.2372020E+02  0.7546771E-02  0.1680095E+00
         21   -1    0    0  501  502  0.00000000000E+00  0.00000000000E+00  0.43563489548E+03  0.43563489548E+03  0.00000000000E+00 0. -1.
         21   -1    0    0  502  503 -0.00000000000E+00 -0.00000000000E+00 -0.13289172898E+01  0.13289172898E+01  0.00000000000E+00 0. -1.
          4    1    1    2  501    0  0.23558984654E+02  0.27608257770E+01  0.25378522023E+03  0.25489132179E+03  0.00000000000E+00 0.  1.
         -4    1    1    2    0  503 -0.23558984654E+02 -0.27608257770E+01  0.18052075796E+03  0.18207249098E+03  0.00000000000E+00 0. -1.
<mgrwt>
<rscale>  2 0.23720201E+02</rscale>
<asrwt>0</asrwt>
<pdfrwt beam="1">  1       21 0.67020639E-01 0.23720201E+02</pdfrwt>
<pdfrwt beam="2">  1       21 0.20444916E-03 0.23720201E+02</pdfrwt>
<totfact> 0.66745259E+07</totfact>
</mgrwt>
</event>
<event>
 4    1  0.7424968E+004  0.4643271E+02  0.7546771E-02  0.1465591E+00
         21   -1    0    0  503  502  0.00000000000E+00  0.00000000000E+00  0.76453507912E+02  0.76453507912E+02  0.00000000000E+00 0. -1.
         21   -1    0    0  501  503 -0.00000000000E+00 -0.00000000000E+00 -0.31193893172E+02  0.31193893172E+02  0.00000000000E+00 0. -1.
          1    1    1    2  501    0  0.35268651242E+02 -0.30201299940E+02  0.39304196605E+02  0.60834333639E+02  0.00000000000E+00 0. -1.
         -1    1    1    2    0  502 -0.35268651242E+02  0.30201299940E+02  0.59554181351E+01  0.46813067446E+02  0.00000000000E+00 0.  1.
<mgrwt>
<rscale>  2 0.46432707E+02</rscale>
<asrwt>0</asrwt>
<pdfrwt beam="1">  1       21 0.11762078E-01 0.46432707E+02</pdfrwt>
<pdfrwt beam="2">  1       21 0.47990605E-02 0.46432707E+02</pdfrwt>
<totfact> 0.15299937E+07</totfact>
</mgrwt>
</event>
<event>
 4    1  0.7424968E+004  0.2159328E+02  0.7546771E-02  0.1715382E+00
         21   -1    0    0  503  502  0.00000000000E+00  0.00000000000E+00  0.35066339585E+01  0.35066339585E+01  0.00000000000E+00 0.  1.
         21   -1    0    0  501  503 -0.00000000000E+00 -0.00000000000E+00 -0.13887015375E+03  0.13887015375E+03  0.00000000000E+00 0.  1.
          1    1    1    2  501    0  0.20962631085E+02 -0.51805134110E+01 -0.53005511187E+02  0.57235075238E+02  0.00000000000E+00 0.  1.
         -1    1    1    2    0  502 -0.20962631085E+02  0.51805134110E+01 -0.82358008603E+02  0.85141712470E+02  0.00000000000E+00 0. -1.
<mgrwt>
<rscale>  2 0.21593277E+02</rscale>
<asrwt>0</asrwt>
<pdfrwt beam="1">  1       21 0.53948212E-03 0.21593277E+02</pdfrwt>
<pdfrwt beam="2">  1       21 0.21364640E-01 0.21593277E+02</pdfrwt>
<totfact> 0.13511312E+08</totfact>
</mgrwt>
</event>
<event>
 4    1  0.7424968E+004  0.2151465E+02  0.7546771E-02  0.1716784E+00
         21   -1    0    0  503  502  0.00000000000E+00  0.00000000000E+00  0.34315326410E+02  0.34315326410E+02  0.00000000000E+00 0. -1.
         21   -1    0    0  501  503 -0.00000000000E+00 -0.00000000000E+00 -0.15489441003E+02  0.15489441003E+02  0.00000000000E+00 0. -1.
          2    1    1    2  501    0 -0.19109937285E+01  0.21429609484E+02  0.46374803328E+00  0.21519645023E+02  0.00000000000E+00 0. -1.
         -2    1    1    2    0  502  0.19109937285E+01 -0.21429609484E+02  0.18362137374E+02  0.28285122390E+02  0.00000000000E+00 0.  1.
<mgrwt>
<rscale>  2 0.21514648E+02</rscale>
<asrwt>0</asrwt>
<pdfrwt beam="1">  1       21 0.52792810E-02 0.21514648E+02</pdfrwt>
<pdfrwt beam="2">  1       21 0.23829909E-02 0.21514648E+02</pdfrwt>
<totfact> 0.14716436E+08</totfact>
</mgrwt>
</event>
<event>
 4    1  0.7424968E+004  0.2664863E+02  0.7546771E-02  0.1638392E+00
         21   -1    0    0  501  502  0.00000000000E+00  0.00000000000E+00  0.17436774237E+03  0.17436774237E+03  0.00000000000E+00 0. -1.
         21   -1    0    0  502  503 -0.00000000000E+00 -0.00000000000E+00 -0.41131300215E+01  0.41131300215E+01  0.00000000000E+00 0. -1.
          3    1    1    2  501    0 -0.26025635100E+02  0.57285302116E+01  0.93973542835E+02  0.97678946011E+02  0.00000000000E+00 0. -1.
         -3    1    1    2    0  503  0.26025635100E+02 -0.57285302116E+01  0.76281069511E+02  0.80801926378E+02  0.00000000000E+00 0.  1.
<mgrwt>
<rscale>  2 0.26648635E+02</rscale>
<asrwt>0</asrwt>
<pdfrwt beam="1">  1       21 0.26825801E-01 0.26648635E+02</pdfrwt>
<pdfrwt beam="2">  1       21 0.63278937E-03 0.26648635E+02</pdfrwt>
<totfact> 0.75231782E+07</totfact>
</mgrwt>
</event>
<event>
 4    1  0.7424968E+004  0.2222985E+02  0.7546771E-02  0.1704307E+00
         21   -1    0    0  503  502  0.00000000000E+00  0.00000000000E+00  0.30570966875E+02  0.30570966875E+02  0.00000000000E+00 0. -1.
         21   -1    0    0  501  503 -0.00000000000E+00 -0.00000000000E+00 -0.16581138793E+02  0.16581138793E+02  0.00000000000E+00 0. -1.
          1    1    1    2  501    0 -0.20383042123E+02  0.88711725061E+01  0.10731840504E+02  0.24684782933E+02  0.00000000000E+00 0.  1.
         -1    1    1    2    0  502  0.20383042123E+02 -0.88711725061E+01  0.32579875779E+01  0.22467322735E+02  0.00000000000E+00 0. -1.
<mgrwt>
<rscale>  2 0.22229847E+02</rscale>
<asrwt>0</asrwt>
<pdfrwt beam="1">  1       21 0.47032257E-02 0.22229847E+02</pdfrwt>
<pdfrwt beam="2">  1       21 0.25509444E-02 0.22229847E+02</pdfrwt>
<totfact> 0.16078902E+08</totfact>
</mgrwt>
</event>
<event>
 4    1  0.7424968E+004  0.3567412E+02  0.7546771E-02  0.1542694E+00
         21   -1    0    0  503  502  0.00000000000E+00  0.00000000000E+00  0.15434501744E+03  0.15434501744E+03  0.00000000000E+00 0. -1.
         21   -1    0    0  501  503 -0.00000000000E+00 -0.00000000000E+00 -0.82455270470E+01  0.82455270470E+01  0.00000000000E+00 0. -1.
          2    1    1    2  501    0 -0.19795526960E+02 -0.29677934733E+02  0.72786758942E+02  0.81058959868E+02  0.00000000000E+00 0. -1.
         -2    1    1    2    0  502  0.19795526960E+02  0.29677934733E+02  0.73312731449E+02  0.81531584617E+02  0.00000000000E+00 0.  1.
<mgrwt>
<rscale>  2 0.35674118E+02</rscale>
<asrwt>0</asrwt>
<pdfrwt beam="1">  1       21 0.23745385E-01 0.35674118E+02</pdfrwt>
<pdfrwt beam="2">  1       21 0.12685427E-02 0.35674118E+02</pdfrwt>
<totfact> 0.34839129E+07</totfact>
</mgrwt>
</event>
<event>
 4    1  0.7424968E+004  0.3035675E+02  0.7546771E-02  0.1594178E+00
         21   -1    0    0  503  502  0.00000000000E+00  0.00000000000E+00  0.78221696573E+02  0.78221696573E+02  0.00000000000E+00 0. -1.
         21   -1    0    0  501  503 -0.00000000000E+00 -0.00000000000E+00 -0.13607757512E+02  0.13607757512E+02  0.00000000000E+00 0. -1.
          5    1    1    2  501    0 -0.26754565524E+02 -0.14343136466E+02  0.49129655116E+02  0.57751669689E+02  0.00000000000E+00 0. -1.
         -5    1    1    2    0  502  0.26754565524E+02  0.14343136466E+02  0.15484283944E+02  0.34077784396E+02  0.00000000000E+00 0.  1.
<mgrwt>
<rscale>  2 0.30356751E+02</rscale>
<asrwt>0</asrwt>
<pdfrwt beam="1">  1       21 0.12034107E-01 0.30356751E+02</pdfrwt>
<pdfrwt beam="2">  1       21 0.20935012E-02 0.30356751E+02</pdfrwt>
<totfact> 0.50993288E+07</totfact>
</mgrwt>
</event>
<event>
 4    1  0.7424968E+004  0.2661876E+02  0.7546771E-02  0.1638784E+00
         21   -1    0    0  501  502  0.00000000000E+00  0.00000000000E+00  0.15845880714E+02  0.15845880714E+02  0.00000000000E+00 0.  1.
         21   -1    0    0  502  503 -0.00000000000E+00 -0.00000000000E+00 -0.45309599970E+02  0.45309599970E+02  0.00000000000E+00 0.  1.
          1    1    1    2  501    0  0.11508913960E+02 -0.24002154069E+02 -0.18232870083E+02  0.32264470427E+02  0.00000000000E+00 0.  1.
         -1    1    1    2    0  503 -0.11508913960E+02  0.24002154069E+02 -0.11230849173E+02  0.28891010256E+02  0.00000000000E+00 0. -1.
<mgrwt>
<rscale>  2 0.26618762E+02</rscale>
<asrwt>0</asrwt>
<pdfrwt beam="1">  1       21 0.24378278E-02 0.26618762E+02</pdfrwt>
<pdfrwt beam="2">  1       21 0.69707076E-02 0.26618762E+02</pdfrwt>
<totfact> 0.96515184E+07</totfact>
</mgrwt>
</event>
<event>
 4    1  0.7424968E+004  0.2068859E+02  0.7546771E-02  0.1731971E+00
         21   -1    0    0  503  502  0.00000000000E+00  0.00000000000E+00  0.43645100657E+03  0.43645100657E+03  0.00000000000E+00 0. -1.
         21   -1    0    0  501  503 -0.00000000000E+00 -0.00000000000E+00 -0.11533272445E+01  0.11533272445E+01  0.00000000000E+00 0. -1.
          3    1    1    2  501    0 -0.20403507915E+02  0.34226583120E+01  0.13299275302E+03  0.13459231063E+03  0.00000000000E+00 0.  1.
         -3    1    1    2    0  502  0.20403507915E+02 -0.34226583120E+01  0.30230492631E+03  0.30301202319E+03  0.00000000000E+00 0. -1.
<mgrwt>
<rscale>  2 0.20688589E+02</rscale>
<asrwt>0</asrwt>
<pdfrwt beam="1">  1       21 0.67146177E-01 0.20688589E+02</pdfrwt>
<pdfrwt beam="2">  1       21 0.17743531E-03 0.20688589E+02</pdfrwt>
<totfact> 0.78853869E+07</totfact>
</mgrwt>
</event>
<event>
 4    1  0.7424968E+004  0.2013226E+02  0.7546771E-02  0.1742711E+00
         21   -1    0    0  503  502  0.00000000000E+00  0.00000000000E+00  0.17169612217E+01  0.17169612217E+01  0.00000000000E+00 0. -1.
         21   -1    0    0  501  503 -0.00000000000E+00 -0.00000000000E+00 -0.33249651657E+03  0.33249651657E+03  0.00000000000E+00 0. -1.
          2    1    1    2  501    0  0.12431683088E+02  0.15835433391E+02 -0.75394696576E+02  0.78036324663E+02  0.00000000000E+00 0.  1.
         -2    1    1    2    0  502 -0.12431683088E+02 -0.15835433391E+02 -0.25538485877E+03  0.25617715313E+03  0.00000000000E+00 0. -1.
<mgrwt>
<rscale>  2 0.20132255E+02</rscale>
<asrwt>0</asrwt>
<pdfrwt beam="1">  1       21 0.26414791E-03 0.20132255E+02</pdfrwt>
<pdfrwt beam="2">  1       21 0.51153305E-01 0.20132255E+02</pdfrwt>
<totfact> 0.75667331E+07</totfact>
</mgrwt>
</event>
<event>
 4    1  0.7424968E+004  0.4569348E+02  0.7546771E-02  0.1470058E+00
         21   -1    0    0  501  502  0.00000000000E+00  0.00000000000E+00  0.17138205815E+04  0.17138205815E+04  0.00000000000E+00 0.  1.
         21   -1    0    0  502  503 -0.00000000000E+00 -0.00000000000E+00 -0.12552794971E+01  0.12552794971E+01  0.00000000000E+00 0.  1.
          3    1    1    2  501    0  0.22263349446E+02  0.39902854660E+02  0.10035292934E+04  0.10045690306E+04  0.00000000000E+00 0.  1.
         -3    1    1    2    0  503 -0.22263349446E+02 -0.39902854660E+02  0.70903600865E+03  0.71050683044E+03  0.00000000000E+00 0. -1.
<mgrwt>
<rscale>  2 0.45693485E+02</rscale>
<asrwt>0</asrwt>
<pdfrwt beam="1">  1       21 0.26366283E+00 0.45693485E+02</pdfrwt>
<pdfrwt beam="2">  1       21 0.19312129E-03 0.45693485E+02</pdfrwt>
<totfact> 0.28409703E+06</totfact>
</mgrwt>
</event>
<event>
 4    1  0.7424968E+004  0.2623245E+02  0.7546771E-02  0.1643906E+00
         21   -1    0    0  501  502  0.00000000000E+00  0.00000000000E+00  0.14776066400E+02  0.14776066400E+02  0.00000000000E+00 0.  1.
         21   -1    0    0  502  503 -0.00000000000E+00 -0.00000000000E+00 -0.46716646473E+02  0.46716646473E+02  0.00000000000E+00 0.  1.
          1    1    1    2  501    0 -0.26217250033E+02 -0.89301651441E+00 -0.17684852107E+02  0.31636935247E+02  0.00000000000E+00 0. -1.
         -1    1    1    2    0  503  0.26217250033E+02  0.89301651441E+00 -0.14255727967E+02  0.29855777626E+02  0.00000000000E+00 0.  1.
<mgrwt>
<rscale>  2 0.26232455E+02</rscale>
<asrwt>0</asrwt>
<pdfrwt beam="1">  1       21 0.22732410E-02 0.26232455E+02</pdfrwt>
<pdfrwt beam="2">  1       21 0.71871763E-02 0.26232455E+02</pdfrwt>
<totfact> 0.10194750E+08</totfact>
</mgrwt>
</event>
<event>
 4    1  0.7424968E+004  0.3137729E+02  0.7546771E-02  0.1583345E+00
         21   -1    0    0  503  502  0.00000000000E+00  0.00000000000E+00  0.42276721475E+01  0.42276721475E+01  0.00000000000E+00 0.  1.
         21   -1    0    0  501  503 -0.00000000000E+00 -0.00000000000E+00 -0.27728450634E+03  0.27728450634E+03  0.00000000000E+00 0.  1.
          3    1    1    2  501    0  0.27928207493E+02  0.14302087348E+02 -0.80200377364E+02  0.86119887399E+02  0.00000000000E+00 0. -1.
         -3    1    1    2    0  502 -0.27928207493E+02 -0.14302087348E+02 -0.19285645683E+03  0.19539229109E+03  0.00000000000E+00 0.  1.
<mgrwt>
<rscale>  2 0.31377292E+02</rscale>
<asrwt>0</asrwt>
<pdfrwt beam="1">  1       21 0.65041095E-03 0.31377292E+02</pdfrwt>
<pdfrwt beam="2">  1       21 0.42659165E-01 0.31377292E+02</pdfrwt>
<totfact> 0.31487728E+07</totfact>
</mgrwt>
</event>
<event>
 4    1  0.7424968E+004  0.2573669E+02  0.7546771E-02  0.1650641E+00
         21   -1    0    0  503  502  0.00000000000E+00  0.00000000000E+00  0.81865449807E+01  0.81865449807E+01  0.00000000000E+00 0.  1.
         21   -1    0    0  501  503 -0.00000000000E+00 -0.00000000000E+00 -0.81109126974E+02  0.81109126974E+02  0.00000000000E+00 0.  1.
          4    1    1    2  501    0  0.19497450752E+02 -0.16799597384E+02 -0.34251573872E+02  0.42843288516E+02  0.00000000000E+00 0.  1.
         -4    1    1    2    0  502 -0.19497450752E+02  0.16799597384E+02 -0.38671008121E+02  0.46452383439E+02  0.00000000000E+00 0. -1.
<mgrwt>
<rscale>  2 0.25736687E+02</rscale>
<asrwt>0</asrwt>
<pdfrwt beam="1">  1       21 0.12594685E-02 0.25736687E+02</pdfrwt>
<pdfrwt beam="2">  1       21 0.12478327E-01 0.25736687E+02</pdfrwt>
<totfact> 0.10051728E+08</totfact>
</mgrwt>
</event>
<event>
 4    1  0.7424968E+004  0.3209334E+02  0.7546771E-02  0.1576039E+00
         21   -1    0    0  501  502  0.00000000000E+00  0.00000000000E+00  0.15053614010E+01  0.15053614010E+01  0.00000000000E+00 0. -1.
         21   -1    0    0  502  503 -0.00000000000E+00 -0.00000000000E+00 -0.70192345191E+03  0.70192345191E+03  0.00000000000E+00 0. -1.
          4    1    1    2  501    0  0.31726175778E+02  0.48407161270E+01 -0.29433611353E+03  0.29608061485E+03  0.00000000000E+00 0.  1.
         -4    1    1    2    0  503 -0.31726175778E+02 -0.48407161270E+01 -0.40608197698E+03  0.40734819846E+03  0.00000000000E+00 0. -1.
<mgrwt>
<rscale>  2 0.32093345E+02</rscale>
<asrwt>0</asrwt>
<pdfrwt beam="1">  1       21 0.23159423E-03 0.32093345E+02</pdfrwt>
<pdfrwt beam="2">  1       21 0.10798815E+00 0.32093345E+02</pdfrwt>
<totfact> 0.21242565E+07</totfact>
</mgrwt>
</event>
<event>
 4    1  0.7424968E+004  0.2337679E+02  0.7546771E-02  0.1685474E+00
         21   -1    0    0  503  502  0.00000000000E+00  0.00000000000E+00  0.33385743605E+01  0.33385743605E+01  0.00000000000E+00 0. -1.
         21   -1    0    0  501  503 -0.00000000000E+00 -0.00000000000E+00 -0.17120799852E+03  0.17120799852E+03  0.00000000000E+00 0. -1.
          4    1    1    2  501    0 -0.79732312946E+01  0.21975027081E+02 -0.10222908335E+03  0.10486782020E+03  0.00000000000E+00 0.  1.
         -4    1    1    2    0  502  0.79732312946E+01 -0.21975027081E+02 -0.65640340816E+02  0.69678752679E+02  0.00000000000E+00 0. -1.
<mgrwt>
<rscale>  2 0.23376788E+02</rscale>
<asrwt>0</asrwt>
<pdfrwt beam="1">  1       21 0.51362674E-03 0.23376788E+02</pdfrwt>
<pdfrwt beam="2">  1       21 0.26339696E-01 0.23376788E+02</pdfrwt>
<totfact> 0.10251003E+08</totfact>
</mgrwt>
</event>
<event>
 4    1  0.7424968E+004  0.2421047E+02  0.7546771E-02  0.1672608E+00
         21   -1    0    0  501  502  0.00000000000E+00  0.00000000000E+00  0.89715280496E+02  0.89715280496E+02  0.00000000000E+00 0.  1.
         21   -1    0    0  502  503 -0.00000000000E+00 -0.00000000000E+00 -0.68934170702E+01  0.68934170702E+01  0.00000000000E+00 0.  1.
          3    1    1    2  501    0 -0.13466207196E+02  0.20119848269E+02  0.30372120186E+02  0.38840863987E+02  0.00000000000E+00 0.  1.
         -3    1    1    2    0  503  0.13466207196E+02 -0.20119848269E+02  0.52449743240E+02  0.57767833580E+02  0.00000000000E+00 0. -1.
<mgrwt>
<rscale>  2 0.24210474E+02</rscale>
<asrwt>0</asrwt>
<pdfrwt beam="1">  1       21 0.13802350E-01 0.24210474E+02</pdfrwt>
<pdfrwt beam="2">  1       21 0.10605258E-02 0.24210474E+02</pdfrwt>
<totfact> 0.10816264E+08</totfact>
</mgrwt>
</event>
<event>
 4    1  0.7424968E+004  0.2063241E+02  0.7546771E-02  0.1733037E+00
         21   -1    0    0  503  502  0.00000000000E+00  0.00000000000E+00  0.13358364242E+04  0.13358364242E+04  0.00000000000E+00 0. -1.
         21   -1    0    0  501  503 -0.00000000000E+00 -0.00000000000E+00 -0.45810062697E+00  0.45810062697E+00  0.00000000000E+00 0. -1.
          3    1    1    2  501    0  0.19142403431E+02 -0.76983480217E+01  0.10362972015E+04  0.10365025741E+04  0.00000000000E+00 0.  1.
         -3    1    1    2    0  502 -0.19142403431E+02  0.76983480217E+01  0.29908112206E+03  0.29979195076E+03  0.00000000000E+00 0. -1.
<mgrwt>
<rscale>  2 0.20632406E+02</rscale>
<asrwt>0</asrwt>
<pdfrwt beam="1">  1       21 0.20551018E+00 0.20632406E+02</pdfrwt>
<pdfrwt beam="2">  1       21 0.70478089E-04 0.20632406E+02</pdfrwt>
<totfact> 0.23423760E+07</totfact>
</mgrwt>
</event>
<event>
 4    1  0.7424968E+004  0.2472187E+02  0.7546771E-02  0.1665029E+00
         21   -1    0    0  503  502  0.00000000000E+00  0.00000000000E+00  0.45470596745E+01  0.45470596745E+01  0.00000000000E+00 0.  1.
         21   -1    0    0  501  503 -0.00000000000E+00 -0.00000000000E+00 -0.25798509509E+03  0.25798509509E+03  0.00000000000E+00 0.  1.
          2    1    1    2  501    0  0.22675455777E+02 -0.98485905103E+01 -0.35869967614E+02  0.43564040290E+02  0.00000000000E+00 0. -1.
         -2    1    1    2    0  502 -0.22675455777E+02  0.98485905103E+01 -0.21756806780E+03  0.21896811447E+03  0.00000000000E+00 0.  1.
<mgrwt>
<rscale>  2 0.24721874E+02</rscale>
<asrwt>0</asrwt>
<pdfrwt beam="1">  1       21 0.69954767E-03 0.24721874E+02</pdfrwt>
<pdfrwt beam="2">  1       21 0.39690013E-01 0.24721874E+02</pdfrwt>
<totfact> 0.30908753E+07</totfact>
</mgrwt>
</event>
<event>
 4    1  0.7424968E+004  0.2356743E+02  0.7546771E-02  0.1682474E+00
         21   -1    0    0  501  502  0.00000000000E+00  0.00000000000E+00  0.51244835109E+00  0.51244835109E+00  0.00000000000E+00 0.  1.
         21   -1    0    0  502  503 -0.00000000000E+00 -0.00000000000E+00 -0.10841710786E+04  0.10841710786E+04  0.00000000000E+00 0.  1.
          5    1    1    2  501    0 -0.25737534987E+01  0.23426473395E+02 -0.53268863888E+03  0.53320972408E+03  0.00000000000E+00 0. -1.
         -5    1    1    2    0  503  0.25737534987E+01 -0.23426473395E+02 -0.55096999133E+03  0.55147380283E+03  0.00000000000E+00 0.  1.
<mgrwt>
<rscale>  2 0.23567432E+02</rscale>
<asrwt>0</asrwt>
<pdfrwt beam="1">  1       21 0.78839104E-04 0.23567432E+02</pdfrwt>
<pdfrwt beam="2">  1       21 0.16679366E+00 0.23567432E+02</pdfrwt>
<totfact> 0.34469746E+07</totfact>
</mgrwt>
</event>
<event>
 4    1  0.7424968E+004  0.2827331E+02  0.7546771E-02  0.1617999E+00
         21   -1    0    0  503  502  0.00000000000E+00  0.00000000000E+00  0.39690452145E+03  0.39690452145E+03  0.00000000000E+00 0. -1.
         21   -1    0    0  501  503 -0.00000000000E+00 -0.00000000000E+00 -0.26250915059E+01  0.26250915059E+01  0.00000000000E+00 0. -1.
          4    1    1    2  501    0  0.15048565237E+02 -0.23935759205E+02  0.29351977338E+03  0.29487834314E+03  0.00000000000E+00 0.  1.
         -4    1    1    2    0  502 -0.15048565237E+02  0.23935759205E+02  0.10075965656E+03  0.10465126982E+03  0.00000000000E+00 0. -1.
<mgrwt>
<rscale>  2 0.28273307E+02</rscale>
<asrwt>0</asrwt>
<pdfrwt beam="1">  1       21 0.61062186E-01 0.28273307E+02</pdfrwt>
<pdfrwt beam="2">  1       21 0.40386055E-03 0.28273307E+02</pdfrwt>
<totfact> 0.30943235E+07</totfact>
</mgrwt>
</event>
<event>
 4    1  0.7424968E+004  0.3989727E+02  0.7546771E-02  0.1508969E+00
         21   -1    0    0  503  502  0.00000000000E+00  0.00000000000E+00  0.80472191097E+01  0.80472191097E+01  0.00000000000E+00 0.  1.
         21   -1    0    0  501  503 -0.00000000000E+00 -0.00000000000E+00 -0.19910348510E+03  0.19910348510E+03  0.00000000000E+00 0.  1.
          5    1    1    2  501    0  0.39780385213E+02  0.30517759619E+01 -0.10388765840E+03  0.11128538966E+03  0.00000000000E+00 0.  1.
         -5    1    1    2    0  502 -0.39780385213E+02 -0.30517759619E+01 -0.87168607588E+02  0.95865314546E+02  0.00000000000E+00 0. -1.
<mgrwt>
<rscale>  2 0.39897273E+02</rscale>
<asrwt>0</asrwt>
<pdfrwt beam="1">  1       21 0.12380338E-02 0.39897273E+02</pdfrwt>
<pdfrwt beam="2">  1       21 0.30631303E-01 0.39897273E+02</pdfrwt>
<totfact> 0.23103732E+07</totfact>
</mgrwt>
</event>
<event>
 4    1  0.7424968E+004  0.2608949E+02  0.7546771E-02  0.1645829E+00
         21   -1    0    0  501  502  0.00000000000E+00  0.00000000000E+00  0.47219861399E+02  0.47219861399E+02  0.00000000000E+00 0. -1.
         21   -1    0    0  502  503 -0.00000000000E+00 -0.00000000000E+00 -0.15114061344E+02  0.15114061344E+02  0.00000000000E+00 0. -1.
          2    1    1    2  501    0 -0.23720283025E+02  0.10863230740E+02  0.22757069746E+02  0.34620020686E+02  0.00000000000E+00 0. -1.
         -2    1    1    2    0  503  0.23720283025E+02 -0.10863230740E+02  0.93487303096E+01  0.27713902058E+02  0.00000000000E+00 0.  1.
<mgrwt>
<rscale>  2 0.26089492E+02</rscale>
<asrwt>0</asrwt>
<pdfrwt beam="1">  1       21 0.72645940E-02 0.26089492E+02</pdfrwt>
<pdfrwt beam="2">  1       21 0.23252402E-02 0.26089492E+02</pdfrwt>
<totfact> 0.96593701E+07</totfact>
</mgrwt>
</event>
<event>
 4    1  0.7424968E+004  0.2189794E+02  0.7546771E-02  0.1710023E+00
         21   -1    0    0  503  502  0.00000000000E+00  0.00000000000E+00  0.47093841983E+02  0.47093841983E+02  0.00000000000E+00 0.  1.
         21   -1    0    0  501  503 -0.00000000000E+00 -0.00000000000E+00 -0.10211251707E+02  0.10211251707E+02  0.00000000000E+00 0.  1.
          4    1    1    2  501    0 -0.17614421378E+02 -0.13009690016E+02  0.16913526351E+02  0.27669247341E+02  0.00000000000E+00 0. -1.
         -4    1    1    2    0  502  0.17614421378E+02  0.13009690016E+02  0.19969063925E+02  0.29635846349E+02  0.00000000000E+00 0.  1.
<mgrwt>
<rscale>  2 0.21897942E+02</rscale>
<asrwt>0</asrwt>
<pdfrwt beam="1">  1       21 0.72452063E-02 0.21897942E+02</pdfrwt>
<pdfrwt beam="2">  1       21 0.15709618E-02 0.21897942E+02</pdfrwt>
<totfact> 0.16836732E+08</totfact>
</mgrwt>
</event>
<event>
 4    1  0.7424968E+004  0.2084529E+02  0.7546771E-02  0.1729023E+00
         21   -1    0    0  503  502  0.00000000000E+00  0.00000000000E+00  0.82037298132E+00  0.82037298132E+00  0.00000000000E+00 0. -1.
         21   -1    0    0  501  503 -0.00000000000E+00 -0.00000000000E+00 -0.56756264698E+03  0.56756264698E+03  0.00000000000E+00 0. -1.
          3    1    1    2  501    0 -0.76549464374E+01  0.19388865515E+02 -0.20993899750E+03  0.21097134635E+03  0.00000000000E+00 0.  1.
         -3    1    1    2    0  502  0.76549464374E+01 -0.19388865515E+02 -0.35680327650E+03  0.35741167361E+03  0.00000000000E+00 0. -1.
<mgrwt>
<rscale>  2 0.20845295E+02</rscale>
<asrwt>0</asrwt>
<pdfrwt beam="1">  1       21 0.12621137E-03 0.20845295E+02</pdfrwt>
<pdfrwt beam="2">  1       21 0.87317231E-01 0.20845295E+02</pdfrwt>
<totfact> 0.74607618E+07</totfact>
</mgrwt>
</event>
<event>
 4    1  0.7424968E+004  0.2179010E+02  0.7546771E-02  0.1711908E+00
         21   -1    0    0  503  502  0.00000000000E+00  0.00000000000E+00  0.20326026431E+02  0.20326026431E+02  0.00000000000E+00 0. -1.
         21   -1    0    0  501  503 -0.00000000000E+00 -0.00000000000E+00 -0.27825577391E+02  0.27825577391E+02  0.00000000000E+00 0. -1.
          4    1    1    2  501    0 -0.68532035937E+01 -0.20684345710E+02 -0.13395064167E+02  0.25578043338E+02  0.00000000000E+00 0.  1.
         -4    1    1    2    0  502  0.68532035937E+01  0.20684345710E+02  0.58955132067E+01  0.22573560484E+02  0.00000000000E+00 0. -1.
<mgrwt>
<rscale>  2 0.21790102E+02</rscale>
<asrwt>0</asrwt>
<pdfrwt beam="1">  1       21 0.31270810E-02 0.21790102E+02</pdfrwt>
<pdfrwt beam="2">  1       21 0.42808581E-02 0.21790102E+02</pdfrwt>
<totfact> 0.13522291E+08</totfact>
</mgrwt>
</event>
<event>
 4    1  0.7424968E+004  0.4400294E+02  0.7546771E-02  0.1480664E+00
         21   -1    0    0  501  502  0.00000000000E+00  0.00000000000E+00  0.73602211984E+02  0.73602211984E+02  0.00000000000E+00 0. -1.
         21   -1    0    0  502  503 -0.00000000000E+00 -0.00000000000E+00 -0.37610054586E+02  0.37610054586E+02  0.00000000000E+00 0. -1.
          4    1    1    2  501    0  0.30265154453E+02 -0.31941806276E+02 -0.12487593094E+02  0.45740556878E+02  0.00000000000E+00 0.  1.
         -4    1    1    2    0  503 -0.30265154453E+02  0.31941806276E+02  0.48479750492E+02  0.65471709692E+02  0.00000000000E+00 0. -1.
<mgrwt>
<rscale>  2 0.44002938E+02</rscale>
<asrwt>0</asrwt>
<pdfrwt beam="1">  1       21 0.11323417E-01 0.44002938E+02</pdfrwt>
<pdfrwt beam="2">  1       21 0.57861622E-02 0.44002938E+02</pdfrwt>
<totfact> 0.11940093E+07</totfact>
</mgrwt>
</event>
<event>
 4    1  0.7424968E+004  0.2111472E+02  0.7546771E-02  0.1724028E+00
         21   -1    0    0  503  502  0.00000000000E+00  0.00000000000E+00  0.31687215204E+01  0.31687215204E+01  0.00000000000E+00 0. -1.
         21   -1    0    0  501  503 -0.00000000000E+00 -0.00000000000E+00 -0.14215274467E+03  0.14215274467E+03  0.00000000000E+00 0. -1.
          1    1    1    2  501    0  0.69506800742E+01  0.19937891500E+02 -0.62140490362E+02  0.65629810402E+02  0.00000000000E+00 0.  1.
         -1    1    1    2    0  502 -0.69506800742E+01 -0.19937891500E+02 -0.76843532783E+02  0.79691655784E+02  0.00000000000E+00 0. -1.
<mgrwt>
<rscale>  2 0.21114722E+02</rscale>
<asrwt>0</asrwt>
<pdfrwt beam="1">  1       21 0.48749570E-03 0.21114722E+02</pdfrwt>
<pdfrwt beam="2">  1       21 0.21869649E-01 0.21114722E+02</pdfrwt>
<totfact> 0.14957192E+08</totfact>
</mgrwt>
</event>
<event>
 4    1  0.7424968E+004  0.2378609E+02  0.7546771E-02  0.1679076E+00
         21   -1    0    0  501  502  0.00000000000E+00  0.00000000000E+00  0.10734576857E+03  0.10734576857E+03  0.00000000000E+00 0.  1.
         21   -1    0    0  502  503 -0.00000000000E+00 -0.00000000000E+00 -0.53309570526E+01  0.53309570526E+01  0.00000000000E+00 0.  1.
          1    1    1    2  501    0 -0.22012025822E+02  0.90138236485E+01  0.57001299001E+02  0.61765090345E+02  0.00000000000E+00 0. -1.
         -1    1    1    2    0  503  0.22012025822E+02 -0.90138236485E+01  0.45013512518E+02  0.50911635279E+02  0.00000000000E+00 0.  1.
<mgrwt>
<rscale>  2 0.23786095E+02</rscale>
<asrwt>0</asrwt>
<pdfrwt beam="1">  1       21 0.16514732E-01 0.23786095E+02</pdfrwt>
<pdfrwt beam="2">  1       21 0.82014732E-03 0.23786095E+02</pdfrwt>
<totfact> 0.11655063E+08</totfact>
</mgrwt>
</event>
<event>
 4    1  0.7424968E+004  0.2501243E+02  0.7546771E-02  0.1660823E+00
         21   -1    0    0  501  502  0.00000000000E+00  0.00000000000E+00  0.98969850601E+03  0.98969850601E+03  0.00000000000E+00 0. -1.
         21   -1    0    0  502  503 -0.00000000000E+00 -0.00000000000E+00 -0.12184932693E+01  0.12184932693E+01  0.00000000000E+00 0. -1.
          1    1    1    2  501    0 -0.92377577334E+01 -0.23244038079E+02  0.83793866591E+03  0.83831189262E+03  0.00000000000E+00 0. -1.
         -1    1    1    2    0  503  0.92377577334E+01  0.23244038079E+02  0.15054134683E+03  0.15260510666E+03  0.00000000000E+00 0.  1.
<mgrwt>
<rscale>  2 0.25012426E+02</rscale>
<asrwt>0</asrwt>
<pdfrwt beam="1">  1       21 0.15226067E+00 0.25012426E+02</pdfrwt>
<pdfrwt beam="2">  1       21 0.18746129E-03 0.25012426E+02</pdfrwt>
<totfact> 0.12548511E+07</totfact>
</mgrwt>
</event>
<event>
 4    1  0.7424968E+004  0.2317378E+02  0.7546771E-02  0.1688709E+00
         21   -1    0    0  501  502  0.00000000000E+00  0.00000000000E+00  0.32721494032E+02  0.32721494032E+02  0.00000000000E+00 0. -1.
         21   -1    0    0  502  503 -0.00000000000E+00 -0.00000000000E+00 -0.16819373385E+02  0.16819373385E+02  0.00000000000E+00 0. -1.
          1    1    1    2  501    0 -0.19826559148E+02  0.11997155796E+02  0.40959150009E+01  0.23532970797E+02  0.00000000000E+00 0.  1.
         -1    1    1    2    0  503  0.19826559148E+02 -0.11997155796E+02  0.11806205646E+02  0.26007896620E+02  0.00000000000E+00 0. -1.
<mgrwt>
<rscale>  2 0.23173782E+02</rscale>
<asrwt>0</asrwt>
<pdfrwt beam="1">  1       21 0.50340760E-02 0.23173782E+02</pdfrwt>
<pdfrwt beam="2">  1       21 0.25875959E-02 0.23173782E+02</pdfrwt>
<totfact> 0.14297891E+08</totfact>
</mgrwt>
</event>
<event>
 4    1  0.7424968E+004  0.2802621E+02  0.7546771E-02  0.1620990E+00
         21   -1    0    0  503  502  0.00000000000E+00  0.00000000000E+00  0.10885053975E+03  0.10885053975E+03  0.00000000000E+00 0.  1.
         21   -1    0    0  501  503 -0.00000000000E+00 -0.00000000000E+00 -0.76234143671E+01  0.76234143671E+01  0.00000000000E+00 0.  1.
          2    1    1    2  501    0 -0.28022324027E+02 -0.46693251251E+00  0.37151032703E+02  0.46536737109E+02  0.00000000000E+00 0.  1.
         -2    1    1    2    0  502  0.28022324027E+02  0.46693251251E+00  0.64076092685E+02  0.69937217013E+02  0.00000000000E+00 0. -1.
<mgrwt>
<rscale>  2 0.28026214E+02</rscale>
<asrwt>0</asrwt>
<pdfrwt beam="1">  1       21 0.16746236E-01 0.28026214E+02</pdfrwt>
<pdfrwt beam="2">  1       21 0.11728331E-02 0.28026214E+02</pdfrwt>
<totfact> 0.69208389E+07</totfact>
</mgrwt>
</event>
<event>
 4    1  0.7424968E+004  0.2602852E+02  0.7546771E-02  0.1646654E+00
         21   -1    0    0  501  502  0.00000000000E+00  0.00000000000E+00  0.14229288360E+02  0.14229288360E+02  0.00000000000E+00 0. -1.
         21   -1    0    0  502  503 -0.00000000000E+00 -0.00000000000E+00 -0.51636180042E+02  0.51636180042E+02  0.00000000000E+00 0. -1.
          1    1    1    2  501    0 -0.77276905624E+01  0.24854914735E+02 -0.95096932965E+01  0.27711338014E+02  0.00000000000E+00 0. -1.
         -1    1    1    2    0  503  0.77276905624E+01 -0.24854914735E+02 -0.27897198386E+02  0.38154130388E+02  0.00000000000E+00 0.  1.
<mgrwt>
<rscale>  2 0.26028523E+02</rscale>
<asrwt>0</asrwt>
<pdfrwt beam="1">  1       21 0.21891213E-02 0.26028523E+02</pdfrwt>
<pdfrwt beam="2">  1       21 0.79440277E-02 0.26028523E+02</pdfrwt>
<totfact> 0.91569468E+07</totfact>
</mgrwt>
</event>
<event>
 4    1  0.7424968E+004  0.2120459E+02  0.7546771E-02  0.1722383E+00
         21   -1    0    0  501  502  0.00000000000E+00  0.00000000000E+00  0.24340804838E+03  0.24340804838E+03  0.00000000000E+00 0. -1.
         21   -1    0    0  502  503 -0.00000000000E+00 -0.00000000000E+00 -0.23517396331E+01  0.23517396331E+01  0.00000000000E+00 0. -1.
          5    1    1    2  501    0  0.21124113556E+02 -0.18456787240E+01  0.63614853941E+02  0.67055830063E+02  0.00000000000E+00 0. -1.
         -5    1    1    2    0  503 -0.21124113556E+02  0.18456787240E+01  0.17744145481E+03  0.17870395795E+03  0.00000000000E+00 0.  1.
<mgrwt>
<rscale>  2 0.21204592E+02</rscale>
<asrwt>0</asrwt>
<pdfrwt beam="1">  1       21 0.37447372E-01 0.21204592E+02</pdfrwt>
<pdfrwt beam="2">  1       21 0.36180629E-03 0.21204592E+02</pdfrwt>
<totfact> 0.87826792E+07</totfact>
</mgrwt>
</event>
<event>
 4    1  0.7424968E+004  0.2463861E+02  0.7546771E-02  0.1666248E+00
         21   -1    0    0  501  502  0.00000000000E+00  0.00000000000E+00  0.11422927127E+02  0.11422927127E+02  0.00000000000E+00 0.  1.
         21   -1    0    0  502  503 -0.00000000000E+00 -0.00000000000E+00 -0.57623746241E+02  0.57623746241E+02  0.00000000000E+00 0.  1.
          5    1    1    2  501    0 -0.24636286504E+02 -0.33831738098E+00 -0.32726154416E+02  0.40964158165E+02  0.00000000000E+00 0.  1.
         -5    1    1    2    0  503  0.24636286504E+02  0.33831738098E+00 -0.13474664698E+02  0.28082515203E+02  0.00000000000E+00 0. -1.
<mgrwt>
<rscale>  2 0.24638609E+02</rscale>
<asrwt>0</asrwt>
<pdfrwt beam="1">  1       21 0.17573733E-02 0.24638609E+02</pdfrwt>
<pdfrwt beam="2">  1       21 0.88651920E-02 0.24638609E+02</pdfrwt>
<totfact> 0.10568870E+08</totfact>
</mgrwt>
</event>
<event>
 4    1  0.7424968E+004  0.1143067E+03  0.7546771E-02  0.1252796E+00
         21   -1    0    0  501  502  0.00000000000E+00  0.00000000000E+00  0.85056954599E+03  0.85056954599E+03  0.00000000000E+00 0.  1.
         21   -1    0    0  502  503 -0.00000000000E+00 -0.00000000000E+00 -0.15505741363E+02  0.15505741363E+02  0.00000000000E+00 0.  1.
          4    1    1    2  501    0  0.99198593375E+02  0.56794944571E+02  0.45929759932E+03  0.47330783999E+03  0.00000000000E+00 0.  1.
         -4    1    1    2    0  503 -0.99198593375E+02 -0.56794944571E+02  0.37576620531E+03  0.39276744736E+03  0.00000000000E+00 0. -1.
<mgrwt>
<rscale>  2 0.11430672E+03</rscale>
<asrwt>0</asrwt>
<pdfrwt beam="1">  1       21 0.13085682E+00 0.11430672E+03</pdfrwt>
<pdfrwt beam="2">  1       21 0.23854993E-02 0.11430672E+03</pdfrwt>
<totfact> 0.40055237E+05</totfact>
</mgrwt>
</event>
<event>
 4    1  0.7424968E+004  0.2141156E+02  0.7546771E-02  0.1718632E+00
         21   -1    0    0  501  502  0.00000000000E+00  0.00000000000E+00  0.80551532101E+03  0.80551532101E+03  0.00000000000E+00 0. -1.
         21   -1    0    0  502  503 -0.00000000000E+00 -0.00000000000E+00 -0.58048915376E+00  0.58048915376E+00  0.00000000000E+00 0. -1.
          5    1    1    2  501    0  0.17869593145E+02  0.11795449710E+02  0.45881123023E+03  0.45931057029E+03  0.00000000000E+00 0.  1.
         -5    1    1    2    0  503 -0.17869593145E+02 -0.11795449710E+02  0.34612360162E+03  0.34678523987E+03  0.00000000000E+00 0. -1.
<mgrwt>
<rscale>  2 0.21411562E+02</rscale>
<asrwt>0</asrwt>
<pdfrwt beam="1">  1       21 0.12392454E+00 0.21411562E+02</pdfrwt>
<pdfrwt beam="2">  1       21 0.89306668E-04 0.21411562E+02</pdfrwt>
<totfact> 0.56928127E+07</totfact>
</mgrwt>
</event>
<event>
 4    1  0.7424968E+004  0.2107251E+02  0.7546771E-02  0.1724804E+00
         21   -1    0    0  501  502  0.00000000000E+00  0.00000000000E+00  0.52293285476E+01  0.52293285476E+01  0.00000000000E+00 0.  1.
         21   -1    0    0  502  503 -0.00000000000E+00 -0.00000000000E+00 -0.21573226975E+03  0.21573226975E+03  0.00000000000E+00 0.  1.
          2    1    1    2  501    0 -0.13565120228E+02  0.16125694580E+02 -0.19219250315E+02  0.28520695910E+02  0.00000000000E+00 0.  1.
         -2    1    1    2    0  503  0.13565120228E+02 -0.16125694580E+02 -0.19128369089E+03  0.19244090239E+03  0.00000000000E+00 0. -1.
<mgrwt>
<rscale>  2 0.21072506E+02</rscale>
<asrwt>0</asrwt>
<pdfrwt beam="1">  1       21 0.80451235E-03 0.21072506E+02</pdfrwt>
<pdfrwt beam="2">  1       21 0.33189569E-01 0.21072506E+02</pdfrwt>
<totfact> 0.33757314E+07</totfact>
</mgrwt>
</event>
<event>
 4    1  0.7424968E+004  0.3256701E+02  0.7546771E-02  0.1571332E+00
         21   -1    0    0  503  502  0.00000000000E+00  0.00000000000E+00  0.79126715094E+01  0.79126715094E+01  0.00000000000E+00 0.  1.
         21   -1    0    0  501  503 -0.00000000000E+00 -0.00000000000E+00 -0.15484926161E+03  0.15484926161E+03  0.00000000000E+00 0.  1.
          2    1    1    2  501    0 -0.32527120455E+02 -0.16114197229E+01 -0.10330165821E+03  0.10831363177E+03  0.00000000000E+00 0.  1.
         -2    1    1    2    0  502  0.32527120455E+02  0.16114197229E+01 -0.43634931895E+02  0.54448301352E+02  0.00000000000E+00 0. -1.
<mgrwt>
<rscale>  2 0.32567012E+02</rscale>
<asrwt>0</asrwt>
<pdfrwt beam="1">  1       21 0.12173342E-02 0.32567012E+02</pdfrwt>
<pdfrwt beam="2">  1       21 0.23822960E-01 0.32567012E+02</pdfrwt>
<totfact> 0.36253637E+07</totfact>
</mgrwt>
</event>
<event>
 4    1  0.7424968E+004  0.2147387E+02  0.7546771E-02  0.1717513E+00
         21   -1    0    0  501  502  0.00000000000E+00  0.00000000000E+00  0.16385872029E+03  0.16385872029E+03  0.00000000000E+00 0. -1.
         21   -1    0    0  502  503 -0.00000000000E+00 -0.00000000000E+00 -0.28331562864E+01  0.28331562864E+01  0.00000000000E+00 0. -1.
          4    1    1    2  501    0 -0.10117815047E+02  0.18940883866E+02  0.87334623244E+02  0.89935886497E+02  0.00000000000E+00 0.  1.
         -4    1    1    2    0  503  0.10117815047E+02 -0.18940883866E+02  0.73690940761E+02  0.76755990080E+02  0.00000000000E+00 0. -1.
<mgrwt>
<rscale>  2 0.21473874E+02</rscale>
<asrwt>0</asrwt>
<pdfrwt beam="1">  1       21 0.25209026E-01 0.21473874E+02</pdfrwt>
<pdfrwt beam="2">  1       21 0.43587033E-03 0.21473874E+02</pdfrwt>
<totfact> 0.13784327E+08</totfact>
</mgrwt>
</event>
<event>
 4    1  0.7424968E+004  0.2093433E+02  0.7546771E-02  0.1727362E+00
         21   -1    0    0  501  502  0.00000000000E+00  0.00000000000E+00  0.39073492194E+03  0.39073492194E+03  0.00000000000E+00 0. -1.
         21   -1    0    0  502  503 -0.00000000000E+00 -0.00000000000E+00 -0.12996731652E+01  0.12996731652E+01  0.00000000000E+00 0. -1.
          2    1    1    2  501    0  0.13150093721E+02  0.16288685589E+02  0.12216001860E+03  0.12394077775E+03  0.00000000000E+00 0.  1.
         -2    1    1    2    0  503 -0.13150093721E+02 -0.16288685589E+02  0.26727523017E+03  0.26809381736E+03  0.00000000000E+00 0. -1.
<mgrwt>
<rscale>  2 0.20934332E+02</rscale>
<asrwt>0</asrwt>
<pdfrwt beam="1">  1       21 0.60112971E-01 0.20934332E+02</pdfrwt>
<pdfrwt beam="2">  1       21 0.19995003E-03 0.20934332E+02</pdfrwt>
<totfact> 0.83198678E+07</totfact>
</mgrwt>
</event>
<event>
 4    1  0.7424968E+004  0.2027573E+02  0.7546771E-02  0.1739900E+00
         21   -1    0    0  501  502  0.00000000000E+00  0.00000000000E+00  0.44079497671E+02  0.44079497671E+02  0.00000000000E+00 0. -1.
         21   -1    0    0  502  503 -0.00000000000E+00 -0.00000000000E+00 -0.93447087969E+01  0.93447087969E+01  0.00000000000E+00 0. -1.
          1    1    1    2  501    0 -0.20272022435E+02 -0.38798841021E+00  0.16186780314E+02  0.25944503956E+02  0.00000000000E+00 0.  1.
         -1    1    1    2    0  503  0.20272022435E+02  0.38798841021E+00  0.18548008561E+02  0.27479702512E+02  0.00000000000E+00 0. -1.
<mgrwt>
<rscale>  2 0.20275735E+02</rscale>
<asrwt>0</asrwt>
<pdfrwt beam="1">  1       21 0.67814610E-02 0.20275735E+02</pdfrwt>
<pdfrwt beam="2">  1       21 0.14376475E-02 0.20275735E+02</pdfrwt>
<totfact> 0.20912008E+08</totfact>
</mgrwt>
</event>
<event>
 4    1  0.7424968E+004  0.2861123E+02  0.7546771E-02  0.1613967E+00
         21   -1    0    0  503  502  0.00000000000E+00  0.00000000000E+00  0.63246557524E+01  0.63246557524E+01  0.00000000000E+00 0.  1.
         21   -1    0    0  501  503 -0.00000000000E+00 -0.00000000000E+00 -0.13390849365E+03  0.13390849365E+03  0.00000000000E+00 0.  1.
          5    1    1    2  501    0 -0.28179349488E+02  0.49524647994E+01 -0.50969681379E+02  0.58450928693E+02  0.00000000000E+00 0.  1.
         -5    1    1    2    0  502  0.28179349488E+02 -0.49524647994E+01 -0.76614156521E+02  0.81782220712E+02  0.00000000000E+00 0. -1.
<mgrwt>
<rscale>  2 0.28611233E+02</rscale>
<asrwt>0</asrwt>
<pdfrwt beam="1">  1       21 0.97302393E-03 0.28611233E+02</pdfrwt>
<pdfrwt beam="2">  1       21 0.20601307E-01 0.28611233E+02</pdfrwt>
<totfact> 0.64254714E+07</totfact>
</mgrwt>
</event>
<event>
 4    1  0.7424968E+004  0.5536046E+02  0.7546771E-02  0.1418402E+00
         21   -1    0    0  501  502  0.00000000000E+00  0.00000000000E+00  0.24629057263E+03  0.24629057263E+03  0.00000000000E+00 0.  1.
         21   -1    0    0  502  503 -0.00000000000E+00 -0.00000000000E+00 -0.12450819660E+02  0.12450819660E+02  0.00000000000E+00 0.  1.
          2    1    1    2  501    0 -0.51355418524E+02 -0.20673679481E+02  0.11383866599E+03  0.12658602573E+03  0.00000000000E+00 0.  1.
         -2    1    1    2    0  503  0.51355418524E+02  0.20673679481E+02  0.12000108698E+03  0.13215536656E+03  0.00000000000E+00 0. -1.
<mgrwt>
<rscale>  2 0.55360456E+02</rscale>
<asrwt>0</asrwt>
<pdfrwt beam="1">  1       21 0.37890853E-01 0.55360456E+02</pdfrwt>
<pdfrwt beam="2">  1       21 0.19155109E-02 0.55360456E+02</pdfrwt>
<totfact> 0.81521567E+06</totfact>
</mgrwt>
</event>
<event>
 4    1  0.7424968E+004  0.3309624E+02  0.7546771E-02  0.1566187E+00
         21   -1    0    0  501  502  0.00000000000E+00  0.00000000000E+00  0.94279278984E+03  0.94279278984E+03  0.00000000000E+00 0. -1.
         21   -1    0    0  502  503 -0.00000000000E+00 -0.00000000000E+00 -0.12656160244E+01  0.12656160244E+01  0.00000000000E+00 0. -1.
          4    1    1    2  501    0 -0.26100190101E+02 -0.20350463397E+02  0.33558887489E+03  0.33721692460E+03  0.00000000000E+00 0. -1.
         -4    1    1    2    0  503  0.26100190101E+02  0.20350463397E+02  0.60593829893E+03  0.60684148127E+03  0.00000000000E+00 0.  1.
<mgrwt>
<rscale>  2 0.33096243E+02</rscale>
<asrwt>0</asrwt>
<pdfrwt beam="1">  1       21 0.14504448E+00 0.33096243E+02</pdfrwt>
<pdfrwt beam="2">  1       21 0.19471091E-03 0.33096243E+02</pdfrwt>
<totfact> 0.13842815E+07</totfact>
</mgrwt>
</event>
<event>
 4    1  0.7424968E+004  0.5250603E+02  0.7546771E-02  0.1432275E+00
         21   -1    0    0  501  502  0.00000000000E+00  0.00000000000E+00  0.80219461788E+02  0.80219461788E+02  0.00000000000E+00 0.  1.
         21   -1    0    0  502  503 -0.00000000000E+00 -0.00000000000E+00 -0.53949185593E+02  0.53949185593E+02  0.00000000000E+00 0.  1.
          5    1    1    2  501    0  0.69302880613E+00  0.52501454766E+02  0.53551929673E+02  0.74997948060E+02  0.00000000000E+00 0.  1.
         -5    1    1    2    0  503 -0.69302880613E+00 -0.52501454766E+02 -0.27281653479E+02  0.59170699320E+02  0.00000000000E+00 0. -1.
<mgrwt>
<rscale>  2 0.52506029E+02</rscale>
<asrwt>0</asrwt>
<pdfrwt beam="1">  1       21 0.12341456E-01 0.52506029E+02</pdfrwt>
<pdfrwt beam="2">  1       21 0.82998748E-02 0.52506029E+02</pdfrwt>
<totfact> 0.57699585E+06</totfact>
</mgrwt>
</event>
<event>
 4    1  0.7424968E+004  0.2873082E+02  0.7546771E-02  0.1612557E+00
         21   -1    0    0  503  502  0.00000000000E+00  0.00000000000E+00  0.43288729190E+02  0.43288729190E+02  0.00000000000E+00 0.  1.
         21   -1    0    0  501  503 -0.00000000000E+00 -0.00000000000E+00 -0.27842270300E+02  0.27842270300E+02  0.00000000000E+00 0.  1.
          3    1    1    2  501    0  0.28454244605E+02 -0.39769199977E+01 -0.12241558138E+02  0.31230044418E+02  0.00000000000E+00 0.  1.
         -3    1    1    2    0  502 -0.28454244605E+02  0.39769199977E+01  0.27688017028E+02  0.39900955072E+02  0.00000000000E+00 0. -1.
<mgrwt>
<rscale>  2 0.28730818E+02</rscale>
<asrwt>0</asrwt>
<pdfrwt beam="1">  1       21 0.66598045E-02 0.28730818E+02</pdfrwt>
<pdfrwt beam="2">  1       21 0.42834262E-02 0.28730818E+02</pdfrwt>
<totfact> 0.43646607E+07</totfact>
</mgrwt>
</event>
<event>
 4    1  0.7424968E+004  0.2201434E+02  0.7546771E-02  0.1708004E+00
         21   -1    0    0  501  502  0.00000000000E+00  0.00000000000E+00  0.23307300951E+02  0.23307300951E+02  0.00000000000E+00 0. -1.
         21   -1    0    0  502  503 -0.00000000000E+00 -0.00000000000E+00 -0.23754257078E+02  0.23754257078E+02  0.00000000000E+00 0. -1.
          4    1    1    2  501    0 -0.78901485833E+01 -0.20551810385E+02 -0.85314555247E+01  0.23609682085E+02  0.00000000000E+00 0. -1.
         -4    1    1    2    0  503  0.78901485833E+01  0.20551810385E+02  0.80844993982E+01  0.23451875944E+02  0.00000000000E+00 0.  1.
<mgrwt>
<rscale>  2 0.22014344E+02</rscale>
<asrwt>0</asrwt>
<pdfrwt beam="1">  1       21 0.35857386E-02 0.22014344E+02</pdfrwt>
<pdfrwt beam="2">  1       21 0.36545011E-02 0.22014344E+02</pdfrwt>
<totfact> 0.14047762E+08</totfact>
</mgrwt>
</event>
<event>
 4    1  0.7424968E+004  0.3744321E+02  0.7546771E-02  0.1527916E+00
         21   -1    0    0  503  502  0.00000000000E+00  0.00000000000E+00  0.14645591703E+01  0.14645591703E+01  0.00000000000E+00 0. -1.
         21   -1    0    0  501  503 -0.00000000000E+00 -0.00000000000E+00 -0.99055940811E+03  0.99055940811E+03  0.00000000000E+00 0. -1.
          2    1    1    2  501    0  0.25444737562E+02  0.27469239246E+02 -0.58546276189E+03  0.58665887817E+03  0.00000000000E+00 0. -1.
         -2    1    1    2    0  502 -0.25444737562E+02 -0.27469239246E+02 -0.40363208706E+03  0.40536508912E+03  0.00000000000E+00 0.  1.
<mgrwt>
<rscale>  2 0.37443207E+02</rscale>
<asrwt>0</asrwt>
<pdfrwt beam="1">  1       21 0.22531651E-03 0.37443207E+02</pdfrwt>
<pdfrwt beam="2">  1       21 0.15239395E+00 0.37443207E+02</pdfrwt>
<totfact> 0.10050889E+07</totfact>
</mgrwt>
</event>
<event>
 4    1  0.7424968E+004  0.2623229E+02  0.7546771E-02  0.1643908E+00
         21   -1    0    0  501  502  0.00000000000E+00  0.00000000000E+00  0.21109860418E+03  0.21109860418E+03  0.00000000000E+00 0. -1.
         21   -1    0    0  502  503 -0.00000000000E+00 -0.00000000000E+00 -0.38833845884E+01  0.38833845884E+01  0.00000000000E+00 0. -1.
          5    1    1    2  501    0 -0.11665562578E+02  0.23495695645E+02  0.14668255528E+03  0.14900974829E+03  0.00000000000E+00 0.  1.
         -5    1    1    2    0  503  0.11665562578E+02 -0.23495695645E+02  0.60532664310E+02  0.65972240470E+02  0.00000000000E+00 0. -1.
<mgrwt>
<rscale>  2 0.26232290E+02</rscale>
<asrwt>0</asrwt>
<pdfrwt beam="1">  1       21 0.32476699E-01 0.26232290E+02</pdfrwt>
<pdfrwt beam="2">  1       21 0.59744395E-03 0.26232290E+02</pdfrwt>
<totfact> 0.57589480E+07</totfact>
</mgrwt>
</event>
<event>
 4    1  0.7424968E+004  0.2731351E+02  0.7546771E-02  0.1629836E+00
         21   -1    0    0  501  502  0.00000000000E+00  0.00000000000E+00  0.19007608055E+03  0.19007608055E+03  0.00000000000E+00 0. -1.
         21   -1    0    0  502  503 -0.00000000000E+00 -0.00000000000E+00 -0.95800296927E+01  0.95800296927E+01  0.00000000000E+00 0. -1.
          4    1    1    2  501    0 -0.19744073479E+02 -0.18873244531E+02  0.13548825581E+02  0.30489317331E+02  0.00000000000E+00 0.  1.
         -4    1    1    2    0  503  0.19744073479E+02  0.18873244531E+02  0.16694722528E+03  0.16916679291E+03  0.00000000000E+00 0. -1.
<mgrwt>
<rscale>  2 0.27313509E+02</rscale>
<asrwt>0</asrwt>
<pdfrwt beam="1">  1       21 0.29242471E-01 0.27313509E+02</pdfrwt>
<pdfrwt beam="2">  1       21 0.14738509E-02 0.27313509E+02</pdfrwt>
<totfact> 0.18050551E+07</totfact>
</mgrwt>
</event>
<event>
 4    1  0.7424968E+004  0.2309324E+02  0.7546771E-02  0.1690003E+00
         21   -1    0    0  503  502  0.00000000000E+00  0.00000000000E+00  0.49703264603E+02  0.49703264603E+02  0.00000000000E+00 0. -1.
         21   -1    0    0  501  503 -0.00000000000E+00 -0.00000000000E+00 -0.11336150718E+02  0.11336150718E+02  0.00000000000E+00 0. -1.
          3    1    1    2  501    0  0.19914747155E+02  0.11691908007E+02  0.26242972384E+02  0.34956994531E+02  0.00000000000E+00 0.  1.
         -3    1    1    2    0  502 -0.19914747155E+02 -0.11691908007E+02  0.12124141502E+02  0.26082420790E+02  0.00000000000E+00 0. -1.
<mgrwt>
<rscale>  2 0.23093243E+02</rscale>
<asrwt>0</asrwt>
<pdfrwt beam="1">  1       21 0.76466560E-02 0.23093243E+02</pdfrwt>
<pdfrwt beam="2">  1       21 0.17440232E-02 0.23093243E+02</pdfrwt>
<totfact> 0.13368808E+08</totfact>
</mgrwt>
</event>
<event>
 4    1  0.7424968E+004  0.2626674E+02  0.7546771E-02  0.1643447E+00
         21   -1    0    0  503  502  0.00000000000E+00  0.00000000000E+00  0.15518689599E+04  0.15518689599E+04  0.00000000000E+00 0.  1.
         21   -1    0    0  501  503 -0.00000000000E+00 -0.00000000000E+00 -0.47465446763E+00  0.47465446763E+00  0.00000000000E+00 0.  1.
          1    1    1    2  501    0  0.16051596852E+02  0.20791528838E+02  0.58034671162E+03  0.58094082928E+03  0.00000000000E+00 0. -1.
         -1    1    1    2    0  502 -0.16051596852E+02 -0.20791528838E+02  0.97104759380E+03  0.97140278507E+03  0.00000000000E+00 0.  1.
<mgrwt>
<rscale>  2 0.26266736E+02</rscale>
<asrwt>0</asrwt>
<pdfrwt beam="1">  1       21 0.23874501E+00 0.26266736E+02</pdfrwt>
<pdfrwt beam="2">  1       21 0.73025007E-04 0.26266736E+02</pdfrwt>
<totfact> 0.15337078E+07</totfact>
</mgrwt>
</event>
<event>
 4    1  0.7424968E+004  0.3111510E+02  0.7546771E-02  0.1586080E+00
         21   -1    0    0  503  502  0.00000000000E+00  0.00000000000E+00  0.11414282049E+02  0.11414282049E+02  0.00000000000E+00 0. -1.
         21   -1    0    0  501  503 -0.00000000000E+00 -0.00000000000E+00 -0.91319679462E+02  0.91319679462E+02  0.00000000000E+00 0. -1.
          5    1    1    2  501    0  0.12876650290E+02 -0.28325626709E+02 -0.26247746255E+02  0.40707412527E+02  0.00000000000E+00 0. -1.
         -5    1    1    2    0  502 -0.12876650290E+02  0.28325626709E+02 -0.53657651157E+02  0.62026548984E+02  0.00000000000E+00 0.  1.
<mgrwt>
<rscale>  2 0.31115097E+02</rscale>
<asrwt>0</asrwt>
<pdfrwt beam="1">  1       21 0.17560433E-02 0.31115097E+02</pdfrwt>
<pdfrwt beam="2">  1       21 0.14049182E-01 0.31115097E+02</pdfrwt>
<totfact> 0.51688413E+07</totfact>
</mgrwt>
</event>
<event>
 4    1  0.7424968E+004  0.2579790E+02  0.7546771E-02  0.1649799E+00
         21   -1    0    0  501  502  0.00000000000E+00  0.00000000000E+00  0.27838040041E+03  0.27838040041E+03  0.00000000000E+00 0. -1.
         21   -1    0    0  502  503 -0.00000000000E+00 -0.00000000000E+00 -0.17512254118E+02  0.17512254118E+02  0.00000000000E+00 0. -1.
          4    1    1    2  501    0  0.11372423745E+02 -0.23155987073E+02  0.26791136805E+03  0.26915057661E+03  0.00000000000E+00 0. -1.
         -4    1    1    2    0  503 -0.11372423745E+02  0.23155987073E+02 -0.70432217507E+01  0.26742077925E+02  0.00000000000E+00 0.  1.
<mgrwt>
<rscale>  2 0.25797902E+02</rscale>
<asrwt>0</asrwt>
<pdfrwt beam="1">  1       21 0.42827751E-01 0.25797902E+02</pdfrwt>
<pdfrwt beam="2">  1       21 0.26941931E-02 0.25797902E+02</pdfrwt>
<totfact> 0.34600167E+06</totfact>
</mgrwt>
</event>
<event>
 4    1  0.7424968E+004  0.2133591E+02  0.7546771E-02  0.1719997E+00
         21   -1    0    0  501  502  0.00000000000E+00  0.00000000000E+00  0.78152204661E+01  0.78152204661E+01  0.00000000000E+00 0.  1.
         21   -1    0    0  502  503 -0.00000000000E+00 -0.00000000000E+00 -0.61185839517E+02  0.61185839517E+02  0.00000000000E+00 0.  1.
          1    1    1    2  501    0 -0.20817267260E+02 -0.46757198575E+01 -0.19125441072E+02  0.28653158090E+02  0.00000000000E+00 0.  1.
         -1    1    1    2    0  503  0.20817267260E+02  0.46757198575E+01 -0.34245177980E+02  0.40347901893E+02  0.00000000000E+00 0. -1.
<mgrwt>
<rscale>  2 0.21335908E+02</rscale>
<asrwt>0</asrwt>
<pdfrwt beam="1">  1       21 0.12023416E-02 0.21335908E+02</pdfrwt>
<pdfrwt beam="2">  1       21 0.94132060E-02 0.21335908E+02</pdfrwt>
<totfact> 0.16332539E+08</totfact>
</mgrwt>
</event>
<event>
 4    1  0.7424968E+004  0.2223006E+02  0.7546771E-02  0.1704303E+00
         21   -1    0    0  503  502  0.00000000000E+00  0.00000000000E+00  0.11211448491E+01  0.11211448491E+01  0.00000000000E+00 0. -1.
         21   -1    0    0  501  503 -0.00000000000E+00 -0.00000000000E+00 -0.56591853571E+03  0.56591853571E+03  0.00000000000E+00 0. -1.
          3    1    1    2  501    0  0.21535061348E+02  0.55151165429E+01 -0.14907527721E+03  0.15072363336E+03  0.00000000000E+00 0. -1.
         -3    1    1    2    0  502 -0.21535061348E+02 -0.55151165429E+01 -0.41572211365E+03  0.41631604720E+03  0.00000000000E+00 0.  1.
<mgrwt>
<rscale>  2 0.22230056E+02</rscale>
<asrwt>0</asrwt>
<pdfrwt beam="1">  1       21 0.17248418E-03 0.22230056E+02</pdfrwt>
<pdfrwt beam="2">  1       21 0.87064212E-01 0.22230056E+02</pdfrwt>
<totfact> 0.48741531E+07</totfact>
</mgrwt>
</event>
<event>
 4    1  0.7424968E+004  0.2590719E+02  0.7546771E-02  0.1648303E+00
         21   -1    0    0  501  502  0.00000000000E+00  0.00000000000E+00  0.46014371333E+02  0.46014371333E+02  0.00000000000E+00 0. -1.
         21   -1    0    0  502  503 -0.00000000000E+00 -0.00000000000E+00 -0.14798940322E+02  0.14798940322E+02  0.00000000000E+00 0. -1.
          4    1    1    2  501    0 -0.25899876269E+02 -0.61569690054E+00  0.19251930966E+02  0.32277229115E+02  0.00000000000E+00 0. -1.
         -4    1    1    2    0  503  0.25899876269E+02  0.61569690054E+00  0.11963500045E+02  0.28536082540E+02  0.00000000000E+00 0.  1.
<mgrwt>
<rscale>  2 0.25907193E+02</rscale>
<asrwt>0</asrwt>
<pdfrwt beam="1">  1       21 0.70791340E-02 0.25907193E+02</pdfrwt>
<pdfrwt beam="2">  1       21 0.22767601E-02 0.25907193E+02</pdfrwt>
<totfact> 0.10390194E+08</totfact>
</mgrwt>
</event>
<event>
 4    1  0.7424968E+004  0.2911050E+02  0.7546771E-02  0.1608134E+00
         21   -1    0    0  501  502  0.00000000000E+00  0.00000000000E+00  0.12311267171E+03  0.12311267171E+03  0.00000000000E+00 0. -1.
         21   -1    0    0  502  503 -0.00000000000E+00 -0.00000000000E+00 -0.80115146252E+01  0.80115146252E+01  0.00000000000E+00 0. -1.
          3    1    1    2  501    0  0.27996134466E+02  0.79773114001E+01  0.82153801424E+02  0.87158867194E+02  0.00000000000E+00 0.  1.
         -3    1    1    2    0  503 -0.27996134466E+02 -0.79773114001E+01  0.32947355665E+02  0.43965319145E+02  0.00000000000E+00 0. -1.
<mgrwt>
<rscale>  2 0.29110497E+02</rscale>
<asrwt>0</asrwt>
<pdfrwt beam="1">  1       21 0.18940410E-01 0.29110497E+02</pdfrwt>
<pdfrwt beam="2">  1       21 0.12325408E-02 0.29110497E+02</pdfrwt>
<totfact> 0.52244489E+07</totfact>
</mgrwt>
</event>
<event>
 4    1  0.7424968E+004  0.2070580E+02  0.7546771E-02  0.1731646E+00
         21   -1    0    0  501  502  0.00000000000E+00  0.00000000000E+00  0.48390552398E+02  0.48390552398E+02  0.00000000000E+00 0.  1.
         21   -1    0    0  502  503 -0.00000000000E+00 -0.00000000000E+00 -0.88598113179E+01  0.88598113179E+01  0.00000000000E+00 0.  1.
          5    1    1    2  501    0  0.65573995789E+01 -0.19640029685E+02  0.19807040918E+02  0.28653954791E+02  0.00000000000E+00 0. -1.
         -5    1    1    2    0  503 -0.65573995789E+01  0.19640029685E+02  0.19723700163E+02  0.28596408925E+02  0.00000000000E+00 0.  1.
<mgrwt>
<rscale>  2 0.20705802E+02</rscale>
<asrwt>0</asrwt>
<pdfrwt beam="1">  1       21 0.74447002E-02 0.20705802E+02</pdfrwt>
<pdfrwt beam="2">  1       21 0.13630479E-02 0.20705802E+02</pdfrwt>
<totfact> 0.19629351E+08</totfact>
</mgrwt>
</event>
<event>
 4    1  0.7424968E+004  0.2266269E+02  0.7546771E-02  0.1697037E+00
         21   -1    0    0  503  502  0.00000000000E+00  0.00000000000E+00  0.16361842798E+02  0.16361842798E+02  0.00000000000E+00 0. -1.
         21   -1    0    0  501  503 -0.00000000000E+00 -0.00000000000E+00 -0.41750524911E+02  0.41750524911E+02  0.00000000000E+00 0. -1.
          4    1    1    2  501    0  0.17716696335E+02 -0.14132098446E+02 -0.27168701852E+02  0.35379879817E+02  0.00000000000E+00 0. -1.
         -4    1    1    2    0  502 -0.17716696335E+02  0.14132098446E+02  0.17800197386E+01  0.22732487893E+02  0.00000000000E+00 0.  1.
<mgrwt>
<rscale>  2 0.22662690E+02</rscale>
<asrwt>0</asrwt>
<pdfrwt beam="1">  1       21 0.25172066E-02 0.22662690E+02</pdfrwt>
<pdfrwt beam="2">  1       21 0.64231576E-02 0.22662690E+02</pdfrwt>
<totfact> 0.10033033E+08</totfact>
</mgrwt>
</event>
<event>
 4    1  0.7424968E+004  0.2737542E+02  0.7546771E-02  0.1629054E+00
         21   -1    0    0  503  502  0.00000000000E+00  0.00000000000E+00  0.36461944523E+03  0.36461944523E+03  0.00000000000E+00 0. -1.
         21   -1    0    0  501  503 -0.00000000000E+00 -0.00000000000E+00 -0.23182699665E+01  0.23182699665E+01  0.00000000000E+00 0. -1.
          4    1    1    2  501    0  0.24039376028E+02  0.13096647982E+02  0.11936210747E+03  0.12246112235E+03  0.00000000000E+00 0. -1.
         -4    1    1    2    0  502 -0.24039376028E+02 -0.13096647982E+02  0.24293906780E+03  0.24447659285E+03  0.00000000000E+00 0.  1.
<mgrwt>
<rscale>  2 0.27375423E+02</rscale>
<asrwt>0</asrwt>
<pdfrwt beam="1">  1       21 0.56095254E-01 0.27375423E+02</pdfrwt>
<pdfrwt beam="2">  1       21 0.35665721E-03 0.27375423E+02</pdfrwt>
<totfact> 0.43784461E+07</totfact>
</mgrwt>
</event>
<event>
 4    1  0.7424968E+004  0.2059050E+02  0.7546771E-02  0.1733834E+00
         21   -1    0    0  503  502  0.00000000000E+00  0.00000000000E+00  0.39965078143E+02  0.39965078143E+02  0.00000000000E+00 0.  1.
         21   -1    0    0  501  503 -0.00000000000E+00 -0.00000000000E+00 -0.10773595958E+02  0.10773595958E+02  0.00000000000E+00 0.  1.
          4    1    1    2  501    0  0.20555882880E+02 -0.11934838820E+01  0.17736420049E+02  0.27176263925E+02  0.00000000000E+00 0. -1.
         -4    1    1    2    0  502 -0.20555882880E+02  0.11934838820E+01  0.11455062137E+02  0.23562410176E+02  0.00000000000E+00 0.  1.
<mgrwt>
<rscale>  2 0.20590501E+02</rscale>
<asrwt>0</asrwt>
<pdfrwt beam="1">  1       21 0.61484735E-02 0.20590501E+02</pdfrwt>
<pdfrwt beam="2">  1       21 0.16574763E-02 0.20590501E+02</pdfrwt>
<totfact> 0.19826152E+08</totfact>
</mgrwt>
</event>
<event>
 4    1  0.7424968E+004  0.2640511E+02  0.7546771E-02  0.1641603E+00
         21   -1    0    0  503  502  0.00000000000E+00  0.00000000000E+00  0.34362495927E+02  0.34362495927E+02  0.00000000000E+00 0.  1.
         21   -1    0    0  501  503 -0.00000000000E+00 -0.00000000000E+00 -0.25389728285E+02  0.25389728285E+02  0.00000000000E+00 0.  1.
          1    1    1    2  501    0 -0.25011188527E+02  0.84658268995E+01  0.17875450791E+02  0.31886698129E+02  0.00000000000E+00 0. -1.
         -1    1    1    2    0  502  0.25011188527E+02 -0.84658268995E+01 -0.89026831492E+01  0.27865526083E+02  0.00000000000E+00 0.  1.
<mgrwt>
<rscale>  2 0.26405109E+02</rscale>
<asrwt>0</asrwt>
<pdfrwt beam="1">  1       21 0.52865378E-02 0.26405109E+02</pdfrwt>
<pdfrwt beam="2">  1       21 0.39061121E-02 0.26405109E+02</pdfrwt>
<totfact> 0.71928492E+07</totfact>
</mgrwt>
</event>
<event>
 4    1  0.7424968E+004  0.2350013E+02  0.7546771E-02  0.1683529E+00
         21   -1    0    0  503  502  0.00000000000E+00  0.00000000000E+00  0.13409247866E+02  0.13409247866E+02  0.00000000000E+00 0.  1.
         21   -1    0    0  501  503 -0.00000000000E+00 -0.00000000000E+00 -0.41308196004E+02  0.41308196004E+02  0.00000000000E+00 0.  1.
          1    1    1    2  501    0  0.21073635104E+02  0.10399894054E+02 -0.12453587700E+02  0.26596009840E+02  0.00000000000E+00 0.  1.
         -1    1    1    2    0  502 -0.21073635104E+02 -0.10399894054E+02 -0.15445360439E+02  0.28121434030E+02  0.00000000000E+00 0. -1.
<mgrwt>
<rscale>  2 0.23500125E+02</rscale>
<asrwt>0</asrwt>
<pdfrwt beam="1">  1       21 0.20629612E-02 0.23500125E+02</pdfrwt>
<pdfrwt beam="2">  1       21 0.63551070E-02 0.23500125E+02</pdfrwt>
<totfact> 0.14020474E+08</totfact>
</mgrwt>
</event>
<event>
 4    1  0.7424968E+004  0.2504095E+02  0.7546771E-02  0.1660414E+00
         21   -1    0    0  501  502  0.00000000000E+00  0.00000000000E+00  0.29001409090E+03  0.29001409090E+03  0.00000000000E+00 0. -1.
         21   -1    0    0  502  503 -0.00000000000E+00 -0.00000000000E+00 -0.21621626088E+01  0.21621626088E+01  0.00000000000E+00 0. -1.
          4    1    1    2  501    0  0.15898936616E+02 -0.19346134059E+02  0.14446492518E+03  0.14661911095E+03  0.00000000000E+00 0.  1.
         -4    1    1    2    0  503 -0.15898936616E+02  0.19346134059E+02  0.14338700311E+03  0.14555714256E+03  0.00000000000E+00 0. -1.
<mgrwt>
<rscale>  2 0.25040948E+02</rscale>
<asrwt>0</asrwt>
<pdfrwt beam="1">  1       21 0.44617522E-01 0.25040948E+02</pdfrwt>
<pdfrwt beam="2">  1       21 0.33264063E-03 0.25040948E+02</pdfrwt>
<totfact> 0.74401717E+07</totfact>
</mgrwt>
</event>
<event>
 4    1  0.7424968E+004  0.2609175E+02  0.7546771E-02  0.1645798E+00
         21   -1    0    0  501  502  0.00000000000E+00  0.00000000000E+00  0.53056039715E+03  0.53056039715E+03  0.00000000000E+00 0. -1.
         21   -1    0    0  502  503 -0.00000000000E+00 -0.00000000000E+00 -0.17681596106E+01  0.17681596106E+01  0.00000000000E+00 0. -1.
          1    1    1    2  501    0  0.23849398211E+02 -0.10582327976E+02  0.40379904756E+03  0.40464113764E+03  0.00000000000E+00 0. -1.
         -1    1    1    2    0  503 -0.23849398211E+02  0.10582327976E+02  0.12499318997E+03  0.12768741912E+03  0.00000000000E+00 0.  1.
<mgrwt>
<rscale>  2 0.26091751E+02</rscale>
<asrwt>0</asrwt>
<pdfrwt beam="1">  1       21 0.81624549E-01 0.26091751E+02</pdfrwt>
<pdfrwt beam="2">  1       21 0.27202498E-03 0.26091751E+02</pdfrwt>
<totfact> 0.29866401E+07</totfact>
</mgrwt>
</event>
<event>
 4    1  0.7424968E+004  0.2563104E+02  0.7546771E-02  0.1652100E+00
         21   -1    0    0  503  502  0.00000000000E+00  0.00000000000E+00  0.23614244708E+01  0.23614244708E+01  0.00000000000E+00 0. -1.
         21   -1    0    0  501  503 -0.00000000000E+00 -0.00000000000E+00 -0.27830223097E+03  0.27830223097E+03  0.00000000000E+00 0. -1.
          2    1    1    2  501    0  0.13317982402E+02 -0.21899349096E+02 -0.14064963984E+03  0.14296597964E+03  0.00000000000E+00 0.  1.
         -2    1    1    2    0  502 -0.13317982402E+02  0.21899349096E+02 -0.13529116665E+03  0.13769767580E+03  0.00000000000E+00 0. -1.
<mgrwt>
<rscale>  2 0.25631039E+02</rscale>
<asrwt>0</asrwt>
<pdfrwt beam="1">  1       21 0.36329633E-03 0.25631039E+02</pdfrwt>
<pdfrwt beam="2">  1       21 0.42815698E-01 0.25631039E+02</pdfrwt>
<totfact> 0.71133429E+07</totfact>
</mgrwt>
</event>
<event>
 4    1  0.7424968E+004  0.2976611E+02  0.7546771E-02  0.1600689E+00
         21   -1    0    0  503  502  0.00000000000E+00  0.00000000000E+00  0.18363338582E+01  0.18363338582E+01  0.00000000000E+00 0.  1.
         21   -1    0    0  501  503 -0.00000000000E+00 -0.00000000000E+00 -0.54608335401E+03  0.54608335401E+03  0.00000000000E+00 0.  1.
          4    1    1    2  501    0 -0.69639119139E+00 -0.29757958572E+02 -0.36560977433E+03  0.36681947623E+03  0.00000000000E+00 0.  1.
         -4    1    1    2    0  502  0.69639119139E+00  0.29757958572E+02 -0.17863724583E+03  0.18110021164E+03  0.00000000000E+00 0. -1.
<mgrwt>
<rscale>  2 0.29766106E+02</rscale>
<asrwt>0</asrwt>
<pdfrwt beam="1">  1       21 0.28251303E-03 0.29766106E+02</pdfrwt>
<pdfrwt beam="2">  1       21 0.84012787E-01 0.29766106E+02</pdfrwt>
<totfact> 0.27222690E+07</totfact>
</mgrwt>
</event>
<event>
 4    1  0.7424968E+004  0.2006573E+02  0.7546771E-02  0.1744024E+00
         21   -1    0    0  503  502  0.00000000000E+00  0.00000000000E+00  0.20721891157E+01  0.20721891157E+01  0.00000000000E+00 0. -1.
         21   -1    0    0  501  503 -0.00000000000E+00 -0.00000000000E+00 -0.28334585817E+03  0.28334585817E+03  0.00000000000E+00 0. -1.
          2    1    1    2  501    0  0.18834844526E+02  0.69196979034E+01 -0.22063708366E+03  0.22154763883E+03  0.00000000000E+00 0.  1.
         -2    1    1    2    0  502 -0.18834844526E+02 -0.69196979034E+01 -0.60636585396E+02  0.63870408452E+02  0.00000000000E+00 0. -1.
<mgrwt>
<rscale>  2 0.20065732E+02</rscale>
<asrwt>0</asrwt>
<pdfrwt beam="1">  1       21 0.31879832E-03 0.20065732E+02</pdfrwt>
<pdfrwt beam="2">  1       21 0.43591672E-01 0.20065732E+02</pdfrwt>
<totfact> 0.78215472E+07</totfact>
</mgrwt>
</event>
<event>
 4    1  0.7424968E+004  0.2052281E+02  0.7546771E-02  0.1735127E+00
         21   -1    0    0  501  502  0.00000000000E+00  0.00000000000E+00  0.42714251957E+02  0.42714251957E+02  0.00000000000E+00 0. -1.
         21   -1    0    0  502  503 -0.00000000000E+00 -0.00000000000E+00 -0.16351314054E+02  0.16351314054E+02  0.00000000000E+00 0. -1.
          5    1    1    2  501    0  0.12142780571E+01 -0.20486851232E+02 -0.54255296805E+01  0.21227857096E+02  0.00000000000E+00 0. -1.
         -5    1    1    2    0  503 -0.12142780571E+01  0.20486851232E+02  0.31788467583E+02  0.37837708914E+02  0.00000000000E+00 0.  1.
<mgrwt>
<rscale>  2 0.20522805E+02</rscale>
<asrwt>0</asrwt>
<pdfrwt beam="1">  1       21 0.65714233E-02 0.20522805E+02</pdfrwt>
<pdfrwt beam="2">  1       21 0.25155868E-02 0.20522805E+02</pdfrwt>
<totfact> 0.94062256E+07</totfact>
</mgrwt>
</event>
<event>
 4    1  0.7424968E+004  0.3127168E+02  0.7546771E-02  0.1584443E+00
         21   -1    0    0  501  502  0.00000000000E+00  0.00000000000E+00  0.29977565464E+03  0.29977565464E+03  0.00000000000E+00 0. -1.
         21   -1    0    0  502  503 -0.00000000000E+00 -0.00000000000E+00 -0.48322374576E+01  0.48322374576E+01  0.00000000000E+00 0. -1.
          4    1    1    2  501    0 -0.22945437872E+02 -0.21246757338E+02  0.23428711286E+03  0.23636490659E+03  0.00000000000E+00 0.  1.
         -4    1    1    2    0  503  0.22945437872E+02  0.21246757338E+02  0.60656304321E+02  0.68242985503E+02  0.00000000000E+00 0. -1.
<mgrwt>
<rscale>  2 0.31271678E+02</rscale>
<asrwt>0</asrwt>
<pdfrwt beam="1">  1       21 0.46119317E-01 0.31271678E+02</pdfrwt>
<pdfrwt beam="2">  1       21 0.74342138E-03 0.31271678E+02</pdfrwt>
<totfact> 0.22136150E+07</totfact>
</mgrwt>
</event>
<event>
 4    1  0.7424968E+004  0.4511080E+02  0.7546771E-02  0.1473651E+00
         21   -1    0    0  501  502  0.00000000000E+00  0.00000000000E+00  0.22547973405E+01  0.22547973405E+01  0.00000000000E+00 0.  1.
         21   -1    0    0  502  503 -0.00000000000E+00 -0.00000000000E+00 -0.11048780043E+04  0.11048780043E+04  0.00000000000E+00 0.  1.
          3    1    1    2  501    0  0.43505324774E+02 -0.11927753178E+02 -0.31440348361E+03  0.31762325967E+03  0.00000000000E+00 0.  1.
         -3    1    1    2    0  503 -0.43505324774E+02  0.11927753178E+02 -0.78821972339E+03  0.78950954201E+03  0.00000000000E+00 0. -1.
<mgrwt>
<rscale>  2 0.45110803E+02</rscale>
<asrwt>0</asrwt>
<pdfrwt beam="1">  1       21 0.34689232E-03 0.45110803E+02</pdfrwt>
<pdfrwt beam="2">  1       21 0.16998102E+00 0.45110803E+02</pdfrwt>
<totfact> 0.40933245E+06</totfact>
</mgrwt>
</event>
<event>
 4    1  0.7424968E+004  0.2240192E+02  0.7546771E-02  0.1701392E+00
         21   -1    0    0  501  502  0.00000000000E+00  0.00000000000E+00  0.12191447657E+02  0.12191447657E+02  0.00000000000E+00 0. -1.
         21   -1    0    0  502  503 -0.00000000000E+00 -0.00000000000E+00 -0.62674707919E+02  0.62674707919E+02  0.00000000000E+00 0. -1.
          2    1    1    2  501    0 -0.14114963825E+02  0.17395795559E+02 -0.47171652986E+02  0.52220788507E+02  0.00000000000E+00 0.  1.
         -2    1    1    2    0  503  0.14114963825E+02 -0.17395795559E+02 -0.33116072756E+01  0.22645367068E+02  0.00000000000E+00 0. -1.
<mgrwt>
<rscale>  2 0.22401917E+02</rscale>
<asrwt>0</asrwt>
<pdfrwt beam="1">  1       21 0.18756073E-02 0.22401917E+02</pdfrwt>
<pdfrwt beam="2">  1       21 0.96422627E-02 0.22401917E+02</pdfrwt>
<totfact> 0.81106903E+07</totfact>
</mgrwt>
</event>
<event>
 4    1  0.7424968E+004  0.2655934E+02  0.7546771E-02  0.1639565E+00
         21   -1    0    0  503  502  0.00000000000E+00  0.00000000000E+00  0.19048322324E+02  0.19048322324E+02  0.00000000000E+00 0. -1.
         21   -1    0    0  501  503 -0.00000000000E+00 -0.00000000000E+00 -0.37080208876E+02  0.37080208876E+02  0.00000000000E+00 0. -1.
          1    1    1    2  501    0  0.12666495893E+02  0.23344341393E+02 -0.80045310162E+01  0.27739338674E+02  0.00000000000E+00 0. -1.
         -1    1    1    2    0  502 -0.12666495893E+02 -0.23344341393E+02 -0.10027355536E+02  0.28389192527E+02  0.00000000000E+00 0.  1.
<mgrwt>
<rscale>  2 0.26559337E+02</rscale>
<asrwt>0</asrwt>
<pdfrwt beam="1">  1       21 0.29305111E-02 0.26559337E+02</pdfrwt>
<pdfrwt beam="2">  1       21 0.57046476E-02 0.26559337E+02</pdfrwt>
<totfact> 0.10017034E+08</totfact>
</mgrwt>
</event>
<event>
 4    1  0.7424968E+004  0.3297645E+02  0.7546771E-02  0.1567341E+00
         21   -1    0    0  501  502  0.00000000000E+00  0.00000000000E+00  0.88135022805E+01  0.88135022805E+01  0.00000000000E+00 0. -1.
         21   -1    0    0  502  503 -0.00000000000E+00 -0.00000000000E+00 -0.16969456921E+03  0.16969456921E+03  0.00000000000E+00 0. -1.
          5    1    1    2  501    0 -0.31569723946E+02 -0.95288302864E+01 -0.12706710311E+03  0.13127640599E+03  0.00000000000E+00 0.  1.
         -5    1    1    2    0  503  0.31569723946E+02  0.95288302864E+01 -0.33813963812E+02  0.47231665494E+02  0.00000000000E+00 0. -1.
<mgrwt>
<rscale>  2 0.32976447E+02</rscale>
<asrwt>0</asrwt>
<pdfrwt beam="1">  1       21 0.13559234E-02 0.32976447E+02</pdfrwt>
<pdfrwt beam="2">  1       21 0.26106857E-01 0.32976447E+02</pdfrwt>
<totfact> 0.26108096E+07</totfact>
</mgrwt>
</event>
<event>
 4    1  0.7424968E+004  0.3479981E+02  0.7546771E-02  0.1550386E+00
         21   -1    0    0  501  502  0.00000000000E+00  0.00000000000E+00  0.72747978631E+02  0.72747978631E+02  0.00000000000E+00 0.  1.
         21   -1    0    0  502  503 -0.00000000000E+00 -0.00000000000E+00 -0.25012858327E+02  0.25012858327E+02  0.00000000000E+00 0.  1.
          1    1    1    2  501    0 -0.34738670755E+02  0.20619398591E+01  0.52136637332E+02  0.62683776164E+02  0.00000000000E+00 0. -1.
         -1    1    1    2    0  503  0.34738670755E+02 -0.20619398591E+01 -0.44015170285E+01  0.35077060795E+02  0.00000000000E+00 0.  1.
<mgrwt>
<rscale>  2 0.34799811E+02</rscale>
<asrwt>0</asrwt>
<pdfrwt beam="1">  1       21 0.11191997E-01 0.34799811E+02</pdfrwt>
<pdfrwt beam="2">  1       21 0.38481321E-02 0.34799811E+02</pdfrwt>
<totfact> 0.22727370E+07</totfact>
</mgrwt>
</event>
<event>
 4    1  0.7424968E+004  0.3147246E+02  0.7546771E-02  0.1582360E+00
         21   -1    0    0  501  502  0.00000000000E+00  0.00000000000E+00  0.90037780379E+02  0.90037780379E+02  0.00000000000E+00 0.  1.
         21   -1    0    0  502  503 -0.00000000000E+00 -0.00000000000E+00 -0.11001893719E+02  0.11001893719E+02  0.00000000000E+00 0.  1.
          5    1    1    2  501    0  0.31000530680E+02  0.54298366907E+01  0.39093073795E+02  0.50187492940E+02  0.00000000000E+00 0. -1.
         -5    1    1    2    0  503 -0.31000530680E+02 -0.54298366907E+01  0.39942812865E+02  0.50852181158E+02  0.00000000000E+00 0.  1.
<mgrwt>
<rscale>  2 0.31472465E+02</rscale>
<asrwt>0</asrwt>
<pdfrwt beam="1">  1       21 0.13851966E-01 0.31472465E+02</pdfrwt>
<pdfrwt beam="2">  1       21 0.16925991E-02 0.31472465E+02</pdfrwt>
<totfact> 0.56188036E+07</totfact>
</mgrwt>
</event>
<event>
 4    1  0.7424968E+004  0.2258658E+02  0.7546771E-02  0.1698300E+00
         21   -1    0    0  503  502  0.00000000000E+00  0.00000000000E+00  0.87628282848E+01  0.87628282848E+01  0.00000000000E+00 0. -1.
         21   -1    0    0  501  503 -0.00000000000E+00 -0.00000000000E+00 -0.77320620616E+02  0.77320620616E+02  0.00000000000E+00 0. -1.
          4    1    1    2  501    0  0.22284160727E+02  0.36837481845E+01 -0.12885036470E+02  0.26003422559E+02  0.00000000000E+00 0. -1.
         -4    1    1    2    0  502 -0.22284160727E+02 -0.36837481845E+01 -0.55672755862E+02  0.60080026342E+02  0.00000000000E+00 0.  1.
<mgrwt>
<rscale>  2 0.22586585E+02</rscale>
<asrwt>0</asrwt>
<pdfrwt beam="1">  1       21 0.13481274E-02 0.22586585E+02</pdfrwt>
<pdfrwt beam="2">  1       21 0.11895480E-01 0.22586585E+02</pdfrwt>
<totfact> 0.94815257E+07</totfact>
</mgrwt>
</event>
<event>
 4    1  0.7424968E+004  0.2073669E+02  0.7546771E-02  0.1731063E+00
         21   -1    0    0  503  502  0.00000000000E+00  0.00000000000E+00  0.29357467553E+03  0.29357467553E+03  0.00000000000E+00 0.  1.
         21   -1    0    0  501  503 -0.00000000000E+00 -0.00000000000E+00 -0.24770508980E+01  0.24770508980E+01  0.00000000000E+00 0.  1.
          3    1    1    2  501    0  0.15513141499E+02  0.13760555376E+02  0.50919172755E+02  0.54979747158E+02  0.00000000000E+00 0.  1.
         -3    1    1    2    0  502 -0.15513141499E+02 -0.13760555376E+02  0.24017845187E+03  0.24107197927E+03  0.00000000000E+00 0. -1.
<mgrwt>
<rscale>  2 0.20736693E+02</rscale>
<asrwt>0</asrwt>
<pdfrwt beam="1">  1       21 0.45165307E-01 0.20736693E+02</pdfrwt>
<pdfrwt beam="2">  1       21 0.38108499E-03 0.20736693E+02</pdfrwt>
<totfact> 0.56871013E+07</totfact>
</mgrwt>
</event>
<event>
 4    1  0.7424968E+004  0.3559552E+02  0.7546771E-02  0.1543375E+00
         21   -1    0    0  501  502  0.00000000000E+00  0.00000000000E+00  0.94683448568E+01  0.94683448568E+01  0.00000000000E+00 0.  1.
         21   -1    0    0  502  503 -0.00000000000E+00 -0.00000000000E+00 -0.13782256796E+03  0.13782256796E+03  0.00000000000E+00 0.  1.
          4    1    1    2  501    0  0.35580945167E+02 -0.10185380279E+01 -0.76729565814E+02  0.84584084488E+02  0.00000000000E+00 0. -1.
         -4    1    1    2    0  503 -0.35580945167E+02  0.10185380279E+01 -0.51624657285E+02  0.62706828324E+02  0.00000000000E+00 0.  1.
<mgrwt>
<rscale>  2 0.35595520E+02</rscale>
<asrwt>0</asrwt>
<pdfrwt beam="1">  1       21 0.14566684E-02 0.35595520E+02</pdfrwt>
<pdfrwt beam="2">  1       21 0.21203472E-01 0.35595520E+02</pdfrwt>
<totfact> 0.34499381E+07</totfact>
</mgrwt>
</event>
<event>
 4    1  0.7424968E+004  0.4471332E+02  0.7546771E-02  0.1476139E+00
         21   -1    0    0  503  502  0.00000000000E+00  0.00000000000E+00  0.15356360047E+03  0.15356360047E+03  0.00000000000E+00 0. -1.
         21   -1    0    0  501  503 -0.00000000000E+00 -0.00000000000E+00 -0.13035698170E+02  0.13035698170E+02  0.00000000000E+00 0. -1.
          4    1    1    2  501    0 -0.16173158688E+02  0.41685851065E+02  0.67304045547E+02  0.80802944179E+02  0.00000000000E+00 0. -1.
         -4    1    1    2    0  502  0.16173158688E+02 -0.41685851065E+02  0.73223856750E+02  0.85796354458E+02  0.00000000000E+00 0.  1.
<mgrwt>
<rscale>  2 0.44713323E+02</rscale>
<asrwt>0</asrwt>
<pdfrwt beam="1">  1       21 0.23625168E-01 0.44713323E+02</pdfrwt>
<pdfrwt beam="2">  1       21 0.20054921E-02 0.44713323E+02</pdfrwt>
<totfact> 0.17917350E+07</totfact>
</mgrwt>
</event>
<event>
 4    1  0.7424968E+004  0.2858973E+02  0.7546771E-02  0.1614222E+00
         21   -1    0    0  501  502  0.00000000000E+00  0.00000000000E+00  0.35714683415E+02  0.35714683415E+02  0.00000000000E+00 0.  1.
         21   -1    0    0  502  503 -0.00000000000E+00 -0.00000000000E+00 -0.25639686425E+02  0.25639686425E+02  0.00000000000E+00 0.  1.
          3    1    1    2  501    0 -0.22856470579E+02 -0.17174231891E+02 -0.50156617456E+01  0.29026356146E+02  0.00000000000E+00 0.  1.
         -3    1    1    2    0  503  0.22856470579E+02  0.17174231891E+02  0.15090658735E+02  0.32328013694E+02  0.00000000000E+00 0. -1.
<mgrwt>
<rscale>  2 0.28589727E+02</rscale>
<asrwt>0</asrwt>
<pdfrwt beam="1">  1       21 0.54945667E-02 0.28589727E+02</pdfrwt>
<pdfrwt beam="2">  1       21 0.39445671E-02 0.28589727E+02</pdfrwt>
<totfact> 0.67884256E+07</totfact>
</mgrwt>
</event>
<event>
 4    1  0.7424968E+004  0.2095488E+02  0.7546771E-02  0.1726980E+00
         21   -1    0    0  503  502  0.00000000000E+00  0.00000000000E+00  0.16391227803E+02  0.16391227803E+02  0.00000000000E+00 0. -1.
         21   -1    0    0  501  503 -0.00000000000E+00 -0.00000000000E+00 -0.36166544130E+02  0.36166544130E+02  0.00000000000E+00 0. -1.
          2    1    1    2  501    0 -0.53381196259E+01 -0.20263554196E+02 -0.23268837856E+02  0.31313670576E+02  0.00000000000E+00 0. -1.
         -2    1    1    2    0  502  0.53381196259E+01  0.20263554196E+02  0.34935215283E+01  0.21244101357E+02  0.00000000000E+00 0.  1.
<mgrwt>
<rscale>  2 0.20954884E+02</rscale>
<asrwt>0</asrwt>
<pdfrwt beam="1">  1       21 0.25217274E-02 0.20954884E+02</pdfrwt>
<pdfrwt beam="2">  1       21 0.55640836E-02 0.20954884E+02</pdfrwt>
<totfact> 0.12305673E+08</totfact>
</mgrwt>
</event>
<event>
 4    1  0.7424968E+004  0.2964273E+02  0.7546771E-02  0.1602072E+00
         21   -1    0    0  503  502  0.00000000000E+00  0.00000000000E+00  0.92563874572E+02  0.92563874572E+02  0.00000000000E+00 0.  1.
         21   -1    0    0  501  503 -0.00000000000E+00 -0.00000000000E+00 -0.10036691023E+02  0.10036691023E+02  0.00000000000E+00 0.  1.
          5    1    1    2  501    0  0.21827389743E+02  0.20056335241E+02  0.53205544485E+02  0.60905841184E+02  0.00000000000E+00 0. -1.
         -5    1    1    2    0  502 -0.21827389743E+02 -0.20056335241E+02  0.29321639064E+02  0.41694724411E+02  0.00000000000E+00 0.  1.
<mgrwt>
<rscale>  2 0.29642731E+02</rscale>
<asrwt>0</asrwt>
<pdfrwt beam="1">  1       21 0.14240595E-01 0.29642731E+02</pdfrwt>
<pdfrwt beam="2">  1       21 0.15441064E-02 0.29642731E+02</pdfrwt>
<totfact> 0.60919982E+07</totfact>
</mgrwt>
</event>
<event>
 4    1  0.7424968E+004  0.2340058E+02  0.7546771E-02  0.1685098E+00
         21   -1    0    0  501  502  0.00000000000E+00  0.00000000000E+00  0.80646961503E+02  0.80646961503E+02  0.00000000000E+00 0.  1.
         21   -1    0    0  502  503 -0.00000000000E+00 -0.00000000000E+00 -0.78793460049E+01  0.78793460049E+01  0.00000000000E+00 0.  1.
          3    1    1    2  501    0  0.23317222107E+02  0.19733513541E+01  0.19925135808E+02  0.30734313061E+02  0.00000000000E+00 0.  1.
         -3    1    1    2    0  503 -0.23317222107E+02 -0.19733513541E+01  0.52842479691E+02  0.57791994447E+02  0.00000000000E+00 0. -1.
<mgrwt>
<rscale>  2 0.23400576E+02</rscale>
<asrwt>0</asrwt>
<pdfrwt beam="1">  1       21 0.12407224E-01 0.23400576E+02</pdfrwt>
<pdfrwt beam="2">  1       21 0.12122071E-02 0.23400576E+02</pdfrwt>
<totfact> 0.10480586E+08</totfact>
</mgrwt>
</event>
<event>
 4    1  0.7424968E+004  0.2997732E+02  0.7546771E-02  0.1598340E+00
         21   -1    0    0  503  502  0.00000000000E+00  0.00000000000E+00  0.35460164950E+02  0.35460164950E+02  0.00000000000E+00 0.  1.
         21   -1    0    0  501  503 -0.00000000000E+00 -0.00000000000E+00 -0.26012962690E+02  0.26012962690E+02  0.00000000000E+00 0.  1.
          2    1    1    2  501    0 -0.17885719442E+02  0.24057025103E+02  0.96591712472E+01  0.31495063199E+02  0.00000000000E+00 0. -1.
         -2    1    1    2    0  502  0.17885719442E+02 -0.24057025103E+02 -0.21196898686E+00  0.29978064440E+02  0.00000000000E+00 0.  1.
<mgrwt>
<rscale>  2 0.29977315E+02</rscale>
<asrwt>0</asrwt>
<pdfrwt beam="1">  1       21 0.54554100E-02 0.29977315E+02</pdfrwt>
<pdfrwt beam="2">  1       21 0.40019943E-02 0.29977315E+02</pdfrwt>
<totfact> 0.67876724E+07</totfact>
</mgrwt>
</event>
<event>
 4    1  0.7424968E+004  0.2338538E+02  0.7546771E-02  0.1685338E+00
         21   -1    0    0  501  502  0.00000000000E+00  0.00000000000E+00  0.27093614271E+02  0.27093614271E+02  0.00000000000E+00 0.  1.
         21   -1    0    0  502  503 -0.00000000000E+00 -0.00000000000E+00 -0.20192943142E+02  0.20192943142E+02  0.00000000000E+00 0.  1.
          3    1    1    2  501    0  0.12785027637E+02  0.19581093575E+02  0.29722958903E+01  0.23573516923E+02  0.00000000000E+00 0. -1.
         -3    1    1    2    0  503 -0.12785027637E+02 -0.19581093575E+02  0.39283752385E+01  0.23713040490E+02  0.00000000000E+00 0.  1.
<mgrwt>
<rscale>  2 0.23385383E+02</rscale>
<asrwt>0</asrwt>
<pdfrwt beam="1">  1       21 0.41682484E-02 0.23385383E+02</pdfrwt>
<pdfrwt beam="2">  1       21 0.31066066E-02 0.23385383E+02</pdfrwt>
<totfact> 0.14557041E+08</totfact>
</mgrwt>
</event>
<event>
 4    1  0.7424968E+004  0.3750296E+02  0.7546771E-02  0.1527434E+00
         21   -1    0    0  503  502  0.00000000000E+00  0.00000000000E+00  0.18254215008E+02  0.18254215008E+02  0.00000000000E+00 0.  1.
         21   -1    0    0  501  503 -0.00000000000E+00 -0.00000000000E+00 -0.77105889758E+02  0.77105889758E+02  0.00000000000E+00 0.  1.
          4    1    1    2  501    0  0.21374586191E+02  0.30815564740E+02 -0.30719114658E+02  0.48478200982E+02  0.00000000000E+00 0. -1.
         -4    1    1    2    0  502 -0.21374586191E+02 -0.30815564740E+02 -0.28132560092E+02  0.46881903784E+02  0.00000000000E+00 0.  1.
<mgrwt>
<rscale>  2 0.37502959E+02</rscale>
<asrwt>0</asrwt>
<pdfrwt beam="1">  1       21 0.28083408E-02 0.37502959E+02</pdfrwt>
<pdfrwt beam="2">  1       21 0.11862444E-01 0.37502959E+02</pdfrwt>
<totfact> 0.34414631E+07</totfact>
</mgrwt>
</event>
<event>
 4    1  0.7424968E+004  0.3446678E+02  0.7546771E-02  0.1553387E+00
         21   -1    0    0  503  502  0.00000000000E+00  0.00000000000E+00  0.52690069763E+02  0.52690069763E+02  0.00000000000E+00 0. -1.
         21   -1    0    0  501  503 -0.00000000000E+00 -0.00000000000E+00 -0.23117096206E+02  0.23117096206E+02  0.00000000000E+00 0. -1.
          1    1    1    2  501    0  0.17634532065E+02 -0.29613887002E+02  0.20743182103E+02  0.40227336828E+02  0.00000000000E+00 0. -1.
         -1    1    1    2    0  502 -0.17634532065E+02  0.29613887002E+02  0.88297914549E+01  0.35579829141E+02  0.00000000000E+00 0.  1.
<mgrwt>
<rscale>  2 0.34466781E+02</rscale>
<asrwt>0</asrwt>
<pdfrwt beam="1">  1       21 0.81061645E-02 0.34466781E+02</pdfrwt>
<pdfrwt beam="2">  1       21 0.35564764E-02 0.34466781E+02</pdfrwt>
<totfact> 0.44162533E+07</totfact>
</mgrwt>
</event>
<event>
 4    1  0.7424968E+004  0.3253385E+02  0.7546771E-02  0.1571659E+00
         21   -1    0    0  501  502  0.00000000000E+00  0.00000000000E+00  0.96632370016E+02  0.96632370016E+02  0.00000000000E+00 0. -1.
         21   -1    0    0  502  503 -0.00000000000E+00 -0.00000000000E+00 -0.11078605111E+02  0.11078605111E+02  0.00000000000E+00 0. -1.
          2    1    1    2  501    0 -0.24806135742E+02  0.21050099771E+02  0.48502641946E+02  0.58403401840E+02  0.00000000000E+00 0.  1.
         -2    1    1    2    0  503  0.24806135742E+02 -0.21050099771E+02  0.37051122959E+02  0.49307573286E+02  0.00000000000E+00 0. -1.
<mgrwt>
<rscale>  2 0.32533845E+02</rscale>
<asrwt>0</asrwt>
<pdfrwt beam="1">  1       21 0.14866518E-01 0.32533845E+02</pdfrwt>
<pdfrwt beam="2">  1       21 0.17044009E-02 0.32533845E+02</pdfrwt>
<totfact> 0.49574075E+07</totfact>
</mgrwt>
</event>
<event>
 4    1  0.7424968E+004  0.3648309E+02  0.7546771E-02  0.1535811E+00
         21   -1    0    0  501  502  0.00000000000E+00  0.00000000000E+00  0.40414606816E+02  0.40414606816E+02  0.00000000000E+00 0. -1.
         21   -1    0    0  502  503 -0.00000000000E+00 -0.00000000000E+00 -0.35317968370E+02  0.35317968370E+02  0.00000000000E+00 0. -1.
          3    1    1    2  501    0  0.34234470998E+02  0.12610196227E+02 -0.72895711393E+01  0.37204218858E+02  0.00000000000E+00 0. -1.
         -3    1    1    2    0  503 -0.34234470998E+02 -0.12610196227E+02  0.12386209586E+02  0.38528356328E+02  0.00000000000E+00 0.  1.
<mgrwt>
<rscale>  2 0.36483093E+02</rscale>
<asrwt>0</asrwt>
<pdfrwt beam="1">  1       21 0.62176318E-02 0.36483093E+02</pdfrwt>
<pdfrwt beam="2">  1       21 0.54335336E-02 0.36483093E+02</pdfrwt>
<totfact> 0.34971210E+07</totfact>
</mgrwt>
</event>
<event>
 4    1  0.7424968E+004  0.3842721E+02  0.7546771E-02  0.1520115E+00
         21   -1    0    0  501  502  0.00000000000E+00  0.00000000000E+00  0.15075385225E+03  0.15075385225E+03  0.00000000000E+00 0. -1.
         21   -1    0    0  502  503 -0.00000000000E+00 -0.00000000000E+00 -0.10022659638E+02  0.10022659638E+02  0.00000000000E+00 0. -1.
          2    1    1    2  501    0 -0.36295075792E+02 -0.12622106480E+02  0.58252863268E+02  0.69785716144E+02  0.00000000000E+00 0. -1.
         -2    1    1    2    0  503  0.36295075792E+02  0.12622106480E+02  0.82478329347E+02  0.90990795746E+02  0.00000000000E+00 0.  1.
<mgrwt>
<rscale>  2 0.38427205E+02</rscale>
<asrwt>0</asrwt>
<pdfrwt beam="1">  1       21 0.23192899E-01 0.38427205E+02</pdfrwt>
<pdfrwt beam="2">  1       21 0.15419477E-02 0.38427205E+02</pdfrwt>
<totfact> 0.27255190E+07</totfact>
</mgrwt>
</event>
<event>
 4    1  0.7424968E+004  0.2138181E+02  0.7546771E-02  0.1719168E+00
         21   -1    0    0  501  502  0.00000000000E+00  0.00000000000E+00  0.12123759971E+02  0.12123759971E+02  0.00000000000E+00 0.  1.
         21   -1    0    0  502  503 -0.00000000000E+00 -0.00000000000E+00 -0.49254625005E+02  0.49254625005E+02  0.00000000000E+00 0.  1.
          2    1    1    2  501    0 -0.19555000354E+02  0.86477649257E+01 -0.37074515393E+01  0.21700854222E+02  0.00000000000E+00 0.  1.
         -2    1    1    2    0  503  0.19555000354E+02 -0.86477649257E+01 -0.33423413495E+02  0.39677530754E+02  0.00000000000E+00 0. -1.
<mgrwt>
<rscale>  2 0.21381812E+02</rscale>
<asrwt>0</asrwt>
<pdfrwt beam="1">  1       21 0.18651938E-02 0.21381812E+02</pdfrwt>
<pdfrwt beam="2">  1       21 0.75776347E-02 0.21381812E+02</pdfrwt>
<totfact> 0.11967041E+08</totfact>
</mgrwt>
</event>
<event>
 4    1  0.7424968E+004  0.2123906E+02  0.7546771E-02  0.1721754E+00
         21   -1    0    0  503  502  0.00000000000E+00  0.00000000000E+00  0.52528790643E+02  0.52528790643E+02  0.00000000000E+00 0.  1.
         21   -1    0    0  501  503 -0.00000000000E+00 -0.00000000000E+00 -0.95840852607E+01  0.95840852607E+01  0.00000000000E+00 0.  1.
          3    1    1    2  501    0 -0.88219679923E+01 -0.19320211765E+02  0.11458396352E+02  0.24132810629E+02  0.00000000000E+00 0. -1.
         -3    1    1    2    0  502  0.88219679923E+01  0.19320211765E+02  0.31486309030E+02  0.37980065275E+02  0.00000000000E+00 0.  1.
<mgrwt>
<rscale>  2 0.21239061E+02</rscale>
<asrwt>0</asrwt>
<pdfrwt beam="1">  1       21 0.80813522E-02 0.21239061E+02</pdfrwt>
<pdfrwt beam="2">  1       21 0.14744747E-02 0.21239061E+02</pdfrwt>
<totfact> 0.15379280E+08</totfact>
</mgrwt>
</event>
<event>
 4    1  0.7424968E+004  0.2395802E+02  0.7546771E-02  0.1676435E+00
         21   -1    0    0  503  502  0.00000000000E+00  0.00000000000E+00  0.66172118460E+03  0.66172118460E+03  0.00000000000E+00 0. -1.
         21   -1    0    0  501  503 -0.00000000000E+00 -0.00000000000E+00 -0.19785130014E+01  0.19785130014E+01  0.00000000000E+00 0. -1.
          3    1    1    2  501    0  0.10294621104E+02 -0.21633485215E+02  0.57855562295E+03  0.57905146210E+03  0.00000000000E+00 0.  1.
         -3    1    1    2    0  502 -0.10294621104E+02  0.21633485215E+02  0.81187048647E+02  0.84648235506E+02  0.00000000000E+00 0. -1.
<mgrwt>
<rscale>  2 0.23958024E+02</rscale>
<asrwt>0</asrwt>
<pdfrwt beam="1">  1       21 0.10180308E+00 0.23958024E+02</pdfrwt>
<pdfrwt beam="2">  1       21 0.30438714E-03 0.23958024E+02</pdfrwt>
<totfact> 0.15499319E+07</totfact>
</mgrwt>
</event>
<event>
 4    1  0.7424968E+004  0.2055623E+02  0.7546771E-02  0.1734488E+00
         21   -1    0    0  503  502  0.00000000000E+00  0.00000000000E+00  0.54701470967E+00  0.54701470967E+00  0.00000000000E+00 0. -1.
         21   -1    0    0  501  503 -0.00000000000E+00 -0.00000000000E+00 -0.77279772488E+03  0.77279772488E+03  0.00000000000E+00 0. -1.
          1    1    1    2  501    0 -0.10139946746E+02  0.17881281627E+02 -0.39394697456E+03  0.39448292424E+03  0.00000000000E+00 0. -1.
         -1    1    1    2    0  502  0.10139946746E+02 -0.17881281627E+02 -0.37830373561E+03  0.37886181535E+03  0.00000000000E+00 0.  1.
<mgrwt>
<rscale>  2 0.20556234E+02</rscale>
<asrwt>0</asrwt>
<pdfrwt beam="1">  1       21 0.84156167E-04 0.20556234E+02</pdfrwt>
<pdfrwt beam="2">  1       21 0.11889188E+00 0.20556234E+02</pdfrwt>
<totfact> 0.67379476E+07</totfact>
</mgrwt>
</event>
<event>
 4    1  0.7424968E+004  0.2508295E+02  0.7546771E-02  0.1659813E+00
         21   -1    0    0  501  502  0.00000000000E+00  0.00000000000E+00  0.23362250242E+03  0.23362250242E+03  0.00000000000E+00 0.  1.
         21   -1    0    0  502  503 -0.00000000000E+00 -0.00000000000E+00 -0.27297386297E+01  0.27297386297E+01  0.00000000000E+00 0.  1.
          1    1    1    2  501    0 -0.13533867936E+02 -0.21118449018E+02  0.10174384272E+03  0.10479009496E+03  0.00000000000E+00 0.  1.
         -1    1    1    2    0  503  0.13533867936E+02  0.21118449018E+02  0.12914892108E+03  0.13156214610E+03  0.00000000000E+00 0. -1.
<mgrwt>
<rscale>  2 0.25082952E+02</rscale>
<asrwt>0</asrwt>
<pdfrwt beam="1">  1       21 0.35941908E-01 0.25082952E+02</pdfrwt>
<pdfrwt beam="2">  1       21 0.41995997E-03 0.25082952E+02</pdfrwt>
<totfact> 0.79564600E+07</totfact>
</mgrwt>
</event>
<event>
 4    1  0.7424968E+004  0.3381263E+02  0.7546771E-02  0.1559405E+00
         21   -1    0    0  503  502  0.00000000000E+00  0.00000000000E+00  0.16868956603E+02  0.16868956603E+02  0.00000000000E+00 0. -1.
         21   -1    0    0  501  503 -0.00000000000E+00 -0.00000000000E+00 -0.93143511891E+02  0.93143511891E+02  0.00000000000E+00 0. -1.
          4    1    1    2  501    0 -0.15809890766E+02 -0.29888818642E+02 -0.94306083979E+01  0.35103140894E+02  0.00000000000E+00 0. -1.
         -4    1    1    2    0  502  0.15809890766E+02  0.29888818642E+02 -0.66843946890E+02  0.74909327601E+02  0.00000000000E+00 0.  1.
<mgrwt>
<rscale>  2 0.33812633E+02</rscale>
<asrwt>0</asrwt>
<pdfrwt beam="1">  1       21 0.25952242E-02 0.33812633E+02</pdfrwt>
<pdfrwt beam="2">  1       21 0.14329771E-01 0.33812633E+02</pdfrwt>
<totfact> 0.27655551E+07</totfact>
</mgrwt>
</event>
<event>
 4    1  0.7424968E+004  0.3205175E+02  0.7546771E-02  0.1576457E+00
         21   -1    0    0  503  502  0.00000000000E+00  0.00000000000E+00  0.91003124457E+02  0.91003124457E+02  0.00000000000E+00 0. -1.
         21   -1    0    0  501  503 -0.00000000000E+00 -0.00000000000E+00 -0.12238308342E+02  0.12238308342E+02  0.00000000000E+00 0. -1.
          2    1    1    2  501    0 -0.16081724844E+02  0.27725305076E+02  0.53761017436E+02  0.62590425875E+02  0.00000000000E+00 0. -1.
         -2    1    1    2    0  502  0.16081724844E+02 -0.27725305076E+02  0.25003798680E+02  0.40651006924E+02  0.00000000000E+00 0.  1.
<mgrwt>
<rscale>  2 0.32051746E+02</rscale>
<asrwt>0</asrwt>
<pdfrwt beam="1">  1       21 0.14000480E-01 0.32051746E+02</pdfrwt>
<pdfrwt beam="2">  1       21 0.18828167E-02 0.32051746E+02</pdfrwt>
<totfact> 0.46975728E+07</totfact>
</mgrwt>
</event>
<event>
 4    1  0.7424968E+004  0.2141965E+02  0.7546771E-02  0.1718486E+00
         21   -1    0    0  501  502  0.00000000000E+00  0.00000000000E+00  0.46122594022E+01  0.46122594022E+01  0.00000000000E+00 0. -1.
         21   -1    0    0  502  503 -0.00000000000E+00 -0.00000000000E+00 -0.12989688860E+03  0.12989688860E+03  0.00000000000E+00 0. -1.
          4    1    1    2  501    0  0.63865657635E+01 -0.20445372165E+02 -0.95190009808E+02  0.97570176962E+02  0.00000000000E+00 0.  1.
         -4    1    1    2    0  503 -0.63865657635E+01  0.20445372165E+02 -0.30094619386E+02  0.36938971036E+02  0.00000000000E+00 0. -1.
<mgrwt>
<rscale>  2 0.21419651E+02</rscale>
<asrwt>0</asrwt>
<pdfrwt beam="1">  1       21 0.70957840E-03 0.21419651E+02</pdfrwt>
<pdfrwt beam="2">  1       21 0.19984136E-01 0.21419651E+02</pdfrwt>
<totfact> 0.10098201E+08</totfact>
</mgrwt>
</event>
<event>
 4    1  0.7424968E+004  0.2980615E+02  0.7546771E-02  0.1600241E+00
         21   -1    0    0  503  502  0.00000000000E+00  0.00000000000E+00  0.45988035131E+02  0.45988035131E+02  0.00000000000E+00 0.  1.
         21   -1    0    0  501  503 -0.00000000000E+00 -0.00000000000E+00 -0.19467752941E+02  0.19467752941E+02  0.00000000000E+00 0.  1.
          4    1    1    2  501    0 -0.28958144643E+02 -0.70591920959E+01  0.10391679918E+02  0.31565698879E+02  0.00000000000E+00 0.  1.
         -4    1    1    2    0  502  0.28958144643E+02  0.70591920959E+01  0.16128602272E+02  0.33890089192E+02  0.00000000000E+00 0. -1.
<mgrwt>
<rscale>  2 0.29806146E+02</rscale>
<asrwt>0</asrwt>
<pdfrwt beam="1">  1       21 0.70750823E-02 0.29806146E+02</pdfrwt>
<pdfrwt beam="2">  1       21 0.29950389E-02 0.29806146E+02</pdfrwt>
<totfact> 0.70257418E+07</totfact>
</mgrwt>
</event>
<event>
 4    1  0.7424968E+004  0.2030468E+02  0.7546771E-02  0.1739336E+00
         21   -1    0    0  503  502  0.00000000000E+00  0.00000000000E+00  0.60218943142E+02  0.60218943142E+02  0.00000000000E+00 0. -1.
         21   -1    0    0  501  503 -0.00000000000E+00 -0.00000000000E+00 -0.70122959172E+01  0.70122959172E+01  0.00000000000E+00 0. -1.
          3    1    1    2  501    0  0.16914387053E+02 -0.11233143217E+02  0.31774549846E+02  0.37708116021E+02  0.00000000000E+00 0.  1.
         -3    1    1    2    0  502 -0.16914387053E+02  0.11233143217E+02  0.21432097379E+02  0.29523123039E+02  0.00000000000E+00 0. -1.
<mgrwt>
<rscale>  2 0.20304679E+02</rscale>
<asrwt>0</asrwt>
<pdfrwt beam="1">  1       21 0.92644525E-02 0.20304679E+02</pdfrwt>
<pdfrwt beam="2">  1       21 0.10788148E-02 0.20304679E+02</pdfrwt>
<totfact> 0.19425825E+08</totfact>
</mgrwt>
</event>
<event>
 4    1  0.7424968E+004  0.2402948E+02  0.7546771E-02  0.1675346E+00
         21   -1    0    0  503  502  0.00000000000E+00  0.00000000000E+00  0.75745778499E+00  0.75745778499E+00  0.00000000000E+00 0. -1.
         21   -1    0    0  501  503 -0.00000000000E+00 -0.00000000000E+00 -0.82867781924E+03  0.82867781924E+03  0.00000000000E+00 0. -1.
          2    1    1    2  501    0  0.23643453923E+02 -0.42898530523E+01 -0.29659302133E+03  0.29756484345E+03  0.00000000000E+00 0.  1.
         -2    1    1    2    0  502 -0.23643453923E+02  0.42898530523E+01 -0.53132734012E+03  0.53187043358E+03  0.00000000000E+00 0. -1.
<mgrwt>
<rscale>  2 0.24029477E+02</rscale>
<asrwt>0</asrwt>
<pdfrwt beam="1">  1       21 0.11653213E-03 0.24029477E+02</pdfrwt>
<pdfrwt beam="2">  1       21 0.12748871E+00 0.24029477E+02</pdfrwt>
<totfact> 0.37419484E+07</totfact>
</mgrwt>
</event>
<event>
 4    1  0.7424968E+004  0.2809905E+02  0.7546771E-02  0.1620104E+00
         21   -1    0    0  501  502  0.00000000000E+00  0.00000000000E+00  0.23538161619E+02  0.23538161619E+02  0.00000000000E+00 0.  1.
         21   -1    0    0  502  503 -0.00000000000E+00 -0.00000000000E+00 -0.34230514583E+02  0.34230514583E+02  0.00000000000E+00 0.  1.
          5    1    1    2  501    0 -0.15541227066E+02 -0.23409977658E+02 -0.94376399068E+01  0.29641623432E+02  0.00000000000E+00 0.  1.
         -5    1    1    2    0  503  0.15541227066E+02  0.23409977658E+02 -0.12547130577E+01  0.28127052770E+02  0.00000000000E+00 0. -1.
<mgrwt>
<rscale>  2 0.28099053E+02</rscale>
<asrwt>0</asrwt>
<pdfrwt beam="1">  1       21 0.36212556E-02 0.28099053E+02</pdfrwt>
<pdfrwt beam="2">  1       21 0.52662330E-02 0.28099053E+02</pdfrwt>
<totfact> 0.82874525E+07</totfact>
</mgrwt>
</event>
<event>
 4    1  0.7424968E+004  0.2200886E+02  0.7546771E-02  0.1708099E+00
         21   -1    0    0  501  502  0.00000000000E+00  0.00000000000E+00  0.80472622009E+00  0.80472622009E+00  0.00000000000E+00 0. -1.
         21   -1    0    0  502  503 -0.00000000000E+00 -0.00000000000E+00 -0.93300448311E+03  0.93300448311E+03  0.00000000000E+00 0. -1.
          3    1    1    2  501    0  0.60654988032E+01  0.21156555118E+02 -0.74423006726E+03  0.74455542648E+03  0.00000000000E+00 0.  1.
         -3    1    1    2    0  503 -0.60654988032E+01 -0.21156555118E+02 -0.18796968964E+03  0.18925378285E+03  0.00000000000E+00 0. -1.
<mgrwt>
<rscale>  2 0.22008864E+02</rscale>
<asrwt>0</asrwt>
<pdfrwt beam="1">  1       21 0.12380479E-03 0.22008864E+02</pdfrwt>
<pdfrwt beam="2">  1       21 0.14353827E+00 0.22008864E+02</pdfrwt>
<totfact> 0.25638170E+07</totfact>
</mgrwt>
</event>
<event>
 4    1  0.7424968E+004  0.2602356E+02  0.7546771E-02  0.1646721E+00
         21   -1    0    0  501  502  0.00000000000E+00  0.00000000000E+00  0.64072329147E+01  0.64072329147E+01  0.00000000000E+00 0.  1.
         21   -1    0    0  502  503 -0.00000000000E+00 -0.00000000000E+00 -0.10584060248E+03  0.10584060248E+03  0.00000000000E+00 0.  1.
          2    1    1    2  501    0 -0.25847742057E+02  0.30199572762E+01 -0.51783291520E+02  0.57954595952E+02  0.00000000000E+00 0.  1.
         -2    1    1    2    0  503  0.25847742057E+02 -0.30199572762E+01 -0.47650078046E+02  0.54293239443E+02  0.00000000000E+00 0. -1.
<mgrwt>
<rscale>  2 0.26023565E+02</rscale>
<asrwt>0</asrwt>
<pdfrwt beam="1">  1       21 0.98572819E-03 0.26023565E+02</pdfrwt>
<pdfrwt beam="2">  1       21 0.16283169E-01 0.26023565E+02</pdfrwt>
<totfact> 0.92786113E+07</totfact>
</mgrwt>
</event>
<event>
 4    1  0.7424968E+004  0.3039021E+02  0.7546771E-02  0.1593815E+00
         21   -1    0    0  501  502  0.00000000000E+00  0.00000000000E+00  0.24349260375E+02  0.24349260375E+02  0.00000000000E+00 0.  1.
         21   -1    0    0  502  503 -0.00000000000E+00 -0.00000000000E+00 -0.47798428868E+02  0.47798428868E+02  0.00000000000E+00 0.  1.
          1    1    1    2  501    0  0.26376296155E+02 -0.15094888071E+02  0.46666689364E+01  0.30746421641E+02  0.00000000000E+00 0. -1.
         -1    1    1    2    0  503 -0.26376296155E+02  0.15094888071E+02 -0.28115837429E+02  0.41401267602E+02  0.00000000000E+00 0.  1.
<mgrwt>
<rscale>  2 0.30390206E+02</rscale>
<asrwt>0</asrwt>
<pdfrwt beam="1">  1       21 0.37460401E-02 0.30390206E+02</pdfrwt>
<pdfrwt beam="2">  1       21 0.73536044E-02 0.30390206E+02</pdfrwt>
<totfact> 0.46509958E+07</totfact>
</mgrwt>
</event>
<event>
 4    1  0.7424968E+004  0.2194800E+02  0.7546771E-02  0.1709153E+00
         21   -1    0    0  503  502  0.00000000000E+00  0.00000000000E+00  0.61417646767E+02  0.61417646767E+02  0.00000000000E+00 0.  1.
         21   -1    0    0  501  503 -0.00000000000E+00 -0.00000000000E+00 -0.82644181940E+01  0.82644181940E+01  0.00000000000E+00 0.  1.
          3    1    1    2  501    0 -0.18235267420E+02  0.12214331526E+02  0.34441727528E+02  0.40840512578E+02  0.00000000000E+00 0. -1.
         -3    1    1    2    0  502  0.18235267420E+02 -0.12214331526E+02  0.18711501044E+02  0.28841552383E+02  0.00000000000E+00 0.  1.
<mgrwt>
<rscale>  2 0.21948004E+02</rscale>
<asrwt>0</asrwt>
<pdfrwt beam="1">  1       21 0.94488684E-02 0.21948004E+02</pdfrwt>
<pdfrwt beam="2">  1       21 0.12714490E-02 0.21948004E+02</pdfrwt>
<totfact> 0.15049241E+08</totfact>
</mgrwt>
</event>
<event>
 4    1  0.7424968E+004  0.2028881E+02  0.7546771E-02  0.1739645E+00
         21   -1    0    0  501  502  0.00000000000E+00  0.00000000000E+00  0.48267780447E+01  0.48267780447E+01  0.00000000000E+00 0. -1.
         21   -1    0    0  502  503 -0.00000000000E+00 -0.00000000000E+00 -0.95017099258E+02  0.95017099258E+02  0.00000000000E+00 0. -1.
          4    1    1    2  501    0  0.15036316121E+02  0.13621493210E+02 -0.61074809957E+02  0.64356571468E+02  0.00000000000E+00 0. -1.
         -4    1    1    2    0  503 -0.15036316121E+02 -0.13621493210E+02 -0.29115511256E+02  0.35487305835E+02  0.00000000000E+00 0.  1.
<mgrwt>
<rscale>  2 0.20288812E+02</rscale>
<asrwt>0</asrwt>
<pdfrwt beam="1">  1       21 0.74258130E-03 0.20288812E+02</pdfrwt>
<pdfrwt beam="2">  1       21 0.14618014E-01 0.20288812E+02</pdfrwt>
<totfact> 0.15876252E+08</totfact>
</mgrwt>
</event>
<event>
 4    1  0.7424968E+004  0.2380360E+02  0.7546771E-02  0.1678806E+00
         21   -1    0    0  503  502  0.00000000000E+00  0.00000000000E+00  0.20024758259E+02  0.20024758259E+02  0.00000000000E+00 0.  1.
         21   -1    0    0  501  503 -0.00000000000E+00 -0.00000000000E+00 -0.35028119971E+02  0.35028119971E+02  0.00000000000E+00 0.  1.
          3    1    1    2  501    0 -0.18755482699E+02  0.14657525812E+02 -0.19569606567E+02  0.30815267245E+02  0.00000000000E+00 0.  1.
         -3    1    1    2    0  502  0.18755482699E+02 -0.14657525812E+02  0.45662448547E+01  0.24237610985E+02  0.00000000000E+00 0. -1.
<mgrwt>
<rscale>  2 0.23803596E+02</rscale>
<asrwt>0</asrwt>
<pdfrwt beam="1">  1       21 0.30807321E-02 0.23803596E+02</pdfrwt>
<pdfrwt beam="2">  1       21 0.53889415E-02 0.23803596E+02</pdfrwt>
<totfact> 0.98555463E+07</totfact>
</mgrwt>
</event>
<event>
 4    1  0.7424968E+004  0.2096038E+02  0.7546771E-02  0.1726878E+00
         21   -1    0    0  503  502  0.00000000000E+00  0.00000000000E+00  0.85842576244E+02  0.85842576244E+02  0.00000000000E+00 0.  1.
         21   -1    0    0  501  503 -0.00000000000E+00 -0.00000000000E+00 -0.55326815678E+01  0.55326815678E+01  0.00000000000E+00 0.  1.
          2    1    1    2  501    0  0.20204851926E+02  0.55768611091E+01  0.52663813302E+02  0.56681695923E+02  0.00000000000E+00 0.  1.
         -2    1    1    2    0  502 -0.20204851926E+02 -0.55768611091E+01  0.27646081374E+02  0.34693561889E+02  0.00000000000E+00 0. -1.
<mgrwt>
<rscale>  2 0.20960377E+02</rscale>
<asrwt>0</asrwt>
<pdfrwt beam="1">  1       21 0.13206549E-01 0.20960377E+02</pdfrwt>
<pdfrwt beam="2">  1       21 0.85118184E-03 0.20960377E+02</pdfrwt>
<totfact> 0.15532087E+08</totfact>
</mgrwt>
</event>
<event>
 4    1  0.7424968E+004  0.2037833E+02  0.7546771E-02  0.1737907E+00
         21   -1    0    0  503  502  0.00000000000E+00  0.00000000000E+00  0.70201435069E+01  0.70201435069E+01  0.00000000000E+00 0. -1.
         21   -1    0    0  501  503 -0.00000000000E+00 -0.00000000000E+00 -0.63527502647E+02  0.63527502647E+02  0.00000000000E+00 0. -1.
          3    1    1    2  501    0 -0.16844338351E+02 -0.11469294021E+02 -0.18999503934E+02  0.27861399634E+02  0.00000000000E+00 0. -1.
         -3    1    1    2    0  502  0.16844338351E+02  0.11469294021E+02 -0.37507855205E+02  0.42686246519E+02  0.00000000000E+00 0.  1.
<mgrwt>
<rscale>  2 0.20378333E+02</rscale>
<asrwt>0</asrwt>
<pdfrwt beam="1">  1       21 0.10800220E-02 0.20378333E+02</pdfrwt>
<pdfrwt beam="2">  1       21 0.97734623E-02 0.20378333E+02</pdfrwt>
<totfact> 0.17784540E+08</totfact>
</mgrwt>
</event>
<event>
 4    1  0.7424968E+004  0.2120852E+02  0.7546771E-02  0.1722311E+00
         21   -1    0    0  501  502  0.00000000000E+00  0.00000000000E+00  0.38885512567E+03  0.38885512567E+03  0.00000000000E+00 0.  1.
         21   -1    0    0  502  503 -0.00000000000E+00 -0.00000000000E+00 -0.11642351038E+01  0.11642351038E+01  0.00000000000E+00 0.  1.
          2    1    1    2  501    0  0.16535203852E+02  0.13281120196E+02  0.20950068822E+03  0.21057145933E+03  0.00000000000E+00 0. -1.
         -2    1    1    2    0  503 -0.16535203852E+02 -0.13281120196E+02  0.17819020235E+03  0.17944790144E+03  0.00000000000E+00 0.  1.
<mgrwt>
<rscale>  2 0.21208515E+02</rscale>
<asrwt>0</asrwt>
<pdfrwt beam="1">  1       21 0.59823762E-01 0.21208515E+02</pdfrwt>
<pdfrwt beam="2">  1       21 0.17911340E-03 0.21208515E+02</pdfrwt>
<totfact> 0.98737582E+07</totfact>
</mgrwt>
</event>
<event>
 4    1  0.7424968E+004  0.2070475E+02  0.7546771E-02  0.1731666E+00
         21   -1    0    0  503  502  0.00000000000E+00  0.00000000000E+00  0.16424396812E+03  0.16424396812E+03  0.00000000000E+00 0. -1.
         21   -1    0    0  501  503 -0.00000000000E+00 -0.00000000000E+00 -0.26244080143E+01  0.26244080143E+01  0.00000000000E+00 0. -1.
          4    1    1    2  501    0  0.15083430965E+02  0.14183675592E+02  0.74640555588E+02  0.77459015495E+02  0.00000000000E+00 0. -1.
         -4    1    1    2    0  502 -0.15083430965E+02 -0.14183675592E+02  0.86979004516E+02  0.89409360637E+02  0.00000000000E+00 0.  1.
<mgrwt>
<rscale>  2 0.20704747E+02</rscale>
<asrwt>0</asrwt>
<pdfrwt beam="1">  1       21 0.25268295E-01 0.20704747E+02</pdfrwt>
<pdfrwt beam="2">  1       21 0.40375521E-03 0.20704747E+02</pdfrwt>
<totfact> 0.15191848E+08</totfact>
</mgrwt>
</event>
<event>
 4    1  0.7424968E+004  0.2370431E+02  0.7546771E-02  0.1680341E+00
         21   -1    0    0  501  502  0.00000000000E+00  0.00000000000E+00  0.99764302602E+01  0.99764302602E+01  0.00000000000E+00 0. -1.
         21   -1    0    0  502  503 -0.00000000000E+00 -0.00000000000E+00 -0.58308003362E+02  0.58308003362E+02  0.00000000000E+00 0. -1.
          5    1    1    2  501    0  0.23055721001E+02  0.55070812936E+01 -0.17864940380E+02  0.29682491642E+02  0.00000000000E+00 0. -1.
         -5    1    1    2    0  503 -0.23055721001E+02 -0.55070812936E+01 -0.30466632722E+02  0.38601941980E+02  0.00000000000E+00 0.  1.
<mgrwt>
<rscale>  2 0.23704308E+02</rscale>
<asrwt>0</asrwt>
<pdfrwt beam="1">  1       21 0.15348354E-02 0.23704308E+02</pdfrwt>
<pdfrwt beam="2">  1       21 0.89704621E-02 0.23704308E+02</pdfrwt>
<totfact> 0.12607236E+08</totfact>
</mgrwt>
</event>
<event>
 4    1  0.7424968E+004  0.2636988E+02  0.7546771E-02  0.1642071E+00
         21   -1    0    0  501  502  0.00000000000E+00  0.00000000000E+00  0.11245078739E+01  0.11245078739E+01  0.00000000000E+00 0. -1.
         21   -1    0    0  502  503 -0.00000000000E+00 -0.00000000000E+00 -0.63006273154E+03  0.63006273154E+03  0.00000000000E+00 0. -1.
          4    1    1    2  501    0  0.14159394128E+02 -0.22245945876E+02 -0.27149054109E+03  0.27276818812E+03  0.00000000000E+00 0.  1.
         -4    1    1    2    0  503 -0.14159394128E+02  0.22245945876E+02 -0.35744768258E+03  0.35841905129E+03  0.00000000000E+00 0. -1.
<mgrwt>
<rscale>  2 0.26369880E+02</rscale>
<asrwt>0</asrwt>
<pdfrwt beam="1">  1       21 0.17300084E-03 0.26369880E+02</pdfrwt>
<pdfrwt beam="2">  1       21 0.96932935E-01 0.26369880E+02</pdfrwt>
<totfact> 0.39910769E+07</totfact>
</mgrwt>
</event>
<event>
 4    1  0.7424968E+004  0.2038168E+02  0.7546771E-02  0.1737843E+00
         21   -1    0    0  501  502  0.00000000000E+00  0.00000000000E+00  0.26283780745E+03  0.26283780745E+03  0.00000000000E+00 0.  1.
         21   -1    0    0  502  503 -0.00000000000E+00 -0.00000000000E+00 -0.20517161446E+01  0.20517161446E+01  0.00000000000E+00 0.  1.
          3    1    1    2  501    0  0.17067246152E+02  0.11141009255E+02  0.19386619467E+03  0.19493464139E+03  0.00000000000E+00 0. -1.
         -3    1    1    2    0  503 -0.17067246152E+02 -0.11141009255E+02  0.66919896636E+02  0.69954882204E+02  0.00000000000E+00 0.  1.
<mgrwt>
<rscale>  2 0.20381682E+02</rscale>
<asrwt>0</asrwt>
<pdfrwt beam="1">  1       21 0.40436559E-01 0.20381682E+02</pdfrwt>
<pdfrwt beam="2">  1       21 0.31564885E-03 0.20381682E+02</pdfrwt>
<totfact> 0.91824946E+07</totfact>
</mgrwt>
</event>
<event>
 4    1  0.7424968E+004  0.2644819E+02  0.7546771E-02  0.1641032E+00
         21   -1    0    0  501  502  0.00000000000E+00  0.00000000000E+00  0.11944510119E+02  0.11944510119E+02  0.00000000000E+00 0. -1.
         21   -1    0    0  502  503 -0.00000000000E+00 -0.00000000000E+00 -0.58922823465E+02  0.58922823465E+02  0.00000000000E+00 0. -1.
          1    1    1    2  501    0 -0.20031335698E+02 -0.17269977599E+02 -0.20720242720E+02  0.33598139748E+02  0.00000000000E+00 0. -1.
         -1    1    1    2    0  503  0.20031335698E+02  0.17269977599E+02 -0.26258070627E+02  0.37269193836E+02  0.00000000000E+00 0.  1.
<mgrwt>
<rscale>  2 0.26448186E+02</rscale>
<asrwt>0</asrwt>
<pdfrwt beam="1">  1       21 0.18376169E-02 0.26448186E+02</pdfrwt>
<pdfrwt beam="2">  1       21 0.90650500E-02 0.26448186E+02</pdfrwt>
<totfact> 0.96916508E+07</totfact>
</mgrwt>
</event>
<event>
 4    1  0.7424968E+004  0.2106136E+02  0.7546771E-02  0.1725010E+00
         21   -1    0    0  503  502  0.00000000000E+00  0.00000000000E+00  0.26000371074E+03  0.26000371074E+03  0.00000000000E+00 0.  1.
         21   -1    0    0  501  503 -0.00000000000E+00 -0.00000000000E+00 -0.18411879475E+01  0.18411879475E+01  0.00000000000E+00 0.  1.
          5    1    1    2  501    0  0.20514971049E+02  0.47662169544E+01  0.93612643929E+02  0.95952633963E+02  0.00000000000E+00 0. -1.
         -5    1    1    2    0  502 -0.20514971049E+02 -0.47662169544E+01  0.16454987887E+03  0.16589226473E+03  0.00000000000E+00 0.  1.
<mgrwt>
<rscale>  2 0.21061359E+02</rscale>
<asrwt>0</asrwt>
<pdfrwt beam="1">  1       21 0.40000542E-01 0.21061359E+02</pdfrwt>
<pdfrwt beam="2">  1       21 0.28325989E-03 0.21061359E+02</pdfrwt>
<totfact> 0.11065178E+08</totfact>
</mgrwt>
</event>
<event>
 4    1  0.7424968E+004  0.2873558E+02  0.7546771E-02  0.1612501E+00
         21   -1    0    0  501  502  0.00000000000E+00  0.00000000000E+00  0.12651931427E+03  0.12651931427E+03  0.00000000000E+00 0. -1.
         21   -1    0    0  502  503 -0.00000000000E+00 -0.00000000000E+00 -0.68761873923E+01  0.68761873923E+01  0.00000000000E+00 0. -1.
          2    1    1    2  501    0  0.95160737998E+01  0.27114159012E+02  0.74861738989E+02  0.80187363369E+02  0.00000000000E+00 0. -1.
         -2    1    1    2    0  503 -0.95160737998E+01 -0.27114159012E+02  0.44781387890E+02  0.53208138296E+02  0.00000000000E+00 0.  1.
<mgrwt>
<rscale>  2 0.28735575E+02</rscale>
<asrwt>0</asrwt>
<pdfrwt beam="1">  1       21 0.19464508E-01 0.28735575E+02</pdfrwt>
<pdfrwt beam="2">  1       21 0.10578751E-02 0.28735575E+02</pdfrwt>
<totfact> 0.62630831E+07</totfact>
</mgrwt>
</event>
<event>
 4    1  0.7424968E+004  0.2753105E+02  0.7546771E-02  0.1627101E+00
         21   -1    0    0  503  502  0.00000000000E+00  0.00000000000E+00  0.21260935907E+01  0.21260935907E+01  0.00000000000E+00 0. -1.
         21   -1    0    0  501  503 -0.00000000000E+00 -0.00000000000E+00 -0.49468368436E+03  0.49468368436E+03  0.00000000000E+00 0. -1.
          4    1    1    2  501    0 -0.38252998439E+01 -0.27264006529E+02 -0.11499236289E+03  0.11824213502E+03  0.00000000000E+00 0. -1.
         -4    1    1    2    0  502  0.38252998439E+01  0.27264006529E+02 -0.37756522789E+03  0.37856764294E+03  0.00000000000E+00 0.  1.
<mgrwt>
<rscale>  2 0.27531055E+02</rscale>
<asrwt>0</asrwt>
<pdfrwt beam="1">  1       21 0.32709107E-03 0.27531055E+02</pdfrwt>
<pdfrwt beam="2">  1       21 0.76105242E-01 0.27531055E+02</pdfrwt>
<totfact> 0.26691391E+07</totfact>
</mgrwt>
</event>
<event>
 4    1  0.7424968E+004  0.2536634E+02  0.7546771E-02  0.1655795E+00
         21   -1    0    0  501  502  0.00000000000E+00  0.00000000000E+00  0.21172808217E+02  0.21172808217E+02  0.00000000000E+00 0.  1.
         21   -1    0    0  502  503 -0.00000000000E+00 -0.00000000000E+00 -0.30934566923E+02  0.30934566923E+02  0.00000000000E+00 0.  1.
          1    1    1    2  501    0  0.25289062161E+02  0.19785199436E+01 -0.14255248852E+01  0.25406363915E+02  0.00000000000E+00 0. -1.
         -1    1    1    2    0  503 -0.25289062161E+02 -0.19785199436E+01 -0.83362338210E+01  0.26701011226E+02  0.00000000000E+00 0.  1.
<mgrwt>
<rscale>  2 0.25366340E+02</rscale>
<asrwt>0</asrwt>
<pdfrwt beam="1">  1       21 0.32573551E-02 0.25366340E+02</pdfrwt>
<pdfrwt beam="2">  1       21 0.47591641E-02 0.25366340E+02</pdfrwt>
<totfact> 0.11210465E+08</totfact>
</mgrwt>
</event>
<event>
 4    1  0.7424968E+004  0.3011144E+02  0.7546771E-02  0.1596860E+00
         21   -1    0    0  503  502  0.00000000000E+00  0.00000000000E+00  0.27790003541E+01  0.27790003541E+01  0.00000000000E+00 0.  1.
         21   -1    0    0  501  503 -0.00000000000E+00 -0.00000000000E+00 -0.41457170540E+03  0.41457170540E+03  0.00000000000E+00 0.  1.
          2    1    1    2  501    0  0.29354249776E+02  0.67102091638E+01 -0.10958870114E+03  0.11365026311E+03  0.00000000000E+00 0.  1.
         -2    1    1    2    0  502 -0.29354249776E+02 -0.67102091638E+01 -0.30220400390E+03  0.30370044264E+03  0.00000000000E+00 0. -1.
<mgrwt>
<rscale>  2 0.30111441E+02</rscale>
<asrwt>0</asrwt>
<pdfrwt beam="1">  1       21 0.42753820E-03 0.30111441E+02</pdfrwt>
<pdfrwt beam="2">  1       21 0.63780310E-01 0.30111441E+02</pdfrwt>
<totfact> 0.26335841E+07</totfact>
</mgrwt>
</event>
<event>
 4    1  0.7424968E+004  0.2216639E+02  0.7546771E-02  0.1705390E+00
         21   -1    0    0  501  502  0.00000000000E+00  0.00000000000E+00  0.66462691534E+01  0.66462691534E+01  0.00000000000E+00 0.  1.
         21   -1    0    0  502  503 -0.00000000000E+00 -0.00000000000E+00 -0.81414124104E+02  0.81414124104E+02  0.00000000000E+00 0.  1.
          2    1    1    2  501    0 -0.93334447916E+01  0.20105609951E+02 -0.24032902566E+02  0.32694481934E+02  0.00000000000E+00 0.  1.
         -2    1    1    2    0  503  0.93334447916E+01 -0.20105609951E+02 -0.50734952385E+02  0.55365911324E+02  0.00000000000E+00 0. -1.
<mgrwt>
<rscale>  2 0.22166388E+02</rscale>
<asrwt>0</asrwt>
<pdfrwt beam="1">  1       21 0.10225029E-02 0.22166388E+02</pdfrwt>
<pdfrwt beam="2">  1       21 0.12525250E-01 0.22166388E+02</pdfrwt>
<totfact> 0.13121907E+08</totfact>
</mgrwt>
</event>
