<event>
 4    1  0.7499963E+004  0.2117472E+02  0.7546771E-02  0.1722928E+00
         21   -1    0    0  501  502  0.00000000000E+00  0.00000000000E+00  0.22396235249E+02  0.22396235249E+02  0.00000000000E+00 0. -1.
         21   -1    0    0  502  503 -0.00000000000E+00 -0.00000000000E+00 -0.20280653774E+02  0.20280653774E+02  0.00000000000E+00 0. -1.
          1    1    1    2  501    0  0.19752082031E+02  0.76304575803E+01 -0.13621382025E+01  0.21218483639E+02  0.00000000000E+00 0.  1.
         -1    1    1    2    0  503 -0.19752082031E+02 -0.76304575803E+01  0.34777196776E+01  0.21458405384E+02  0.00000000000E+00 0. -1.
<mgrwt>
<rscale>  2 0.21174717E+02</rscale>
<asrwt>0</asrwt>
<pdfrwt beam="1">  1       21 0.34455747E-02 0.21174717E+02</pdfrwt>
<pdfrwt beam="2">  1       21 0.31201006E-02 0.21174717E+02</pdfrwt>
<totfact> 0.18905009E+08</totfact>
</mgrwt>
</event>
<event>
 4    1  0.7499963E+004  0.2382959E+02  0.7546771E-02  0.1678405E+00
         21   -1    0    0  503  502  0.00000000000E+00  0.00000000000E+00  0.18711660400E+03  0.18711660400E+03  0.00000000000E+00 0. -1.
         21   -1    0    0  501  503 -0.00000000000E+00 -0.00000000000E+00 -0.30549086987E+01  0.30549086987E+01  0.00000000000E+00 0. -1.
          5    1    1    2  501    0 -0.23779163054E+02 -0.15494325951E+01  0.84303910055E+02  0.87607069278E+02  0.00000000000E+00 0. -1.
         -5    1    1    2    0  502  0.23779163054E+02  0.15494325951E+01  0.99757785249E+02  0.10256444342E+03  0.00000000000E+00 0.  1.
<mgrwt>
<rscale>  2 0.23829590E+02</rscale>
<asrwt>0</asrwt>
<pdfrwt beam="1">  1       21 0.28787161E-01 0.23829590E+02</pdfrwt>
<pdfrwt beam="2">  1       21 0.46998610E-03 0.23829590E+02</pdfrwt>
<totfact> 0.10007234E+08</totfact>
</mgrwt>
</event>
<event>
 4    1  0.7499963E+004  0.2181259E+02  0.7546771E-02  0.1711513E+00
         21   -1    0    0  501  502  0.00000000000E+00  0.00000000000E+00  0.29770954635E+03  0.29770954635E+03  0.00000000000E+00 0. -1.
         21   -1    0    0  502  503 -0.00000000000E+00 -0.00000000000E+00 -0.21013066366E+01  0.21013066366E+01  0.00000000000E+00 0. -1.
          3    1    1    2  501    0 -0.21189757238E+02  0.51752511328E+01  0.22115708632E+03  0.22223016417E+03  0.00000000000E+00 0.  1.
         -3    1    1    2    0  503  0.21189757238E+02 -0.51752511328E+01  0.74451153388E+02  0.77580688814E+02  0.00000000000E+00 0. -1.
<mgrwt>
<rscale>  2 0.21812589E+02</rscale>
<asrwt>0</asrwt>
<pdfrwt beam="1">  1       21 0.45801435E-01 0.21812589E+02</pdfrwt>
<pdfrwt beam="2">  1       21 0.32327818E-03 0.21812589E+02</pdfrwt>
<totfact> 0.71292930E+07</totfact>
</mgrwt>
</event>
<event>
 4    1  0.7499963E+004  0.2379084E+02  0.7546771E-02  0.1679003E+00
         21   -1    0    0  501  502  0.00000000000E+00  0.00000000000E+00  0.19773319954E+03  0.19773319954E+03  0.00000000000E+00 0. -1.
         21   -1    0    0  502  503 -0.00000000000E+00 -0.00000000000E+00 -0.34661193807E+01  0.34661193807E+01  0.00000000000E+00 0. -1.
          4    1    1    2  501    0 -0.23402909027E+02 -0.42787510570E+01  0.13911618955E+03  0.14113581422E+03  0.00000000000E+00 0. -1.
         -4    1    1    2    0  503  0.23402909027E+02  0.42787510570E+01  0.55150890612E+02  0.60063504700E+02  0.00000000000E+00 0.  1.
<mgrwt>
<rscale>  2 0.23790836E+02</rscale>
<asrwt>0</asrwt>
<pdfrwt beam="1">  1       21 0.30420483E-01 0.23790836E+02</pdfrwt>
<pdfrwt beam="2">  1       21 0.53324929E-03 0.23790836E+02</pdfrwt>
<totfact> 0.75083406E+07</totfact>
</mgrwt>
</event>
<event>
 4    1  0.7499963E+004  0.2139107E+02  0.7546771E-02  0.1719001E+00
         21   -1    0    0  503  502  0.00000000000E+00  0.00000000000E+00  0.38720465113E+02  0.38720465113E+02  0.00000000000E+00 0.  1.
         21   -1    0    0  501  503 -0.00000000000E+00 -0.00000000000E+00 -0.14352691861E+02  0.14352691861E+02  0.00000000000E+00 0.  1.
          1    1    1    2  501    0  0.20177925605E+02 -0.71013658109E+01  0.10310352626E+01  0.21415907914E+02  0.00000000000E+00 0. -1.
         -1    1    1    2    0  502 -0.20177925605E+02  0.71013658109E+01  0.23336737989E+02  0.31657249060E+02  0.00000000000E+00 0.  1.
<mgrwt>
<rscale>  2 0.21391075E+02</rscale>
<asrwt>0</asrwt>
<pdfrwt beam="1">  1       21 0.59569946E-02 0.21391075E+02</pdfrwt>
<pdfrwt beam="2">  1       21 0.22081065E-02 0.21391075E+02</pdfrwt>
<totfact> 0.13621085E+08</totfact>
</mgrwt>
</event>
<event>
 4    1  0.7499963E+004  0.3204036E+02  0.7546771E-02  0.1576572E+00
         21   -1    0    0  501  502  0.00000000000E+00  0.00000000000E+00  0.29180719544E+03  0.29180719544E+03  0.00000000000E+00 0. -1.
         21   -1    0    0  502  503 -0.00000000000E+00 -0.00000000000E+00 -0.49055129350E+01  0.49055129350E+01  0.00000000000E+00 0. -1.
          1    1    1    2  501    0 -0.20440958986E+02  0.24672899596E+02  0.22235114417E+03  0.22464776004E+03  0.00000000000E+00 0.  1.
         -1    1    1    2    0  503  0.20440958986E+02 -0.24672899596E+02  0.64550538336E+02  0.72064948333E+02  0.00000000000E+00 0. -1.
<mgrwt>
<rscale>  2 0.32040362E+02</rscale>
<asrwt>0</asrwt>
<pdfrwt beam="1">  1       21 0.44893401E-01 0.32040362E+02</pdfrwt>
<pdfrwt beam="2">  1       21 0.75469452E-03 0.32040362E+02</pdfrwt>
<totfact> 0.22898420E+07</totfact>
</mgrwt>
</event>
<event>
 4    1  0.7499963E+004  0.2245449E+02  0.7546771E-02  0.1700508E+00
         21   -1    0    0  503  502  0.00000000000E+00  0.00000000000E+00  0.99755673327E+00  0.99755673327E+00  0.00000000000E+00 0.  1.
         21   -1    0    0  501  503 -0.00000000000E+00 -0.00000000000E+00 -0.56161553834E+03  0.56161553834E+03  0.00000000000E+00 0.  1.
          3    1    1    2  501    0 -0.18237049856E+02  0.13100159312E+02 -0.19134024963E+03  0.19265330335E+03  0.00000000000E+00 0. -1.
         -3    1    1    2    0  502  0.18237049856E+02 -0.13100159312E+02 -0.36927773197E+03  0.36995979173E+03  0.00000000000E+00 0.  1.
<mgrwt>
<rscale>  2 0.22454491E+02</rscale>
<asrwt>0</asrwt>
<pdfrwt beam="1">  1       21 0.15347001E-03 0.22454491E+02</pdfrwt>
<pdfrwt beam="2">  1       21 0.86402537E-01 0.22454491E+02</pdfrwt>
<totfact> 0.58719692E+07</totfact>
</mgrwt>
</event>
<event>
 4    1  0.7499963E+004  0.2752845E+02  0.7546771E-02  0.1627134E+00
         21   -1    0    0  503  502  0.00000000000E+00  0.00000000000E+00  0.12107486491E+03  0.12107486491E+03  0.00000000000E+00 0.  1.
         21   -1    0    0  501  503 -0.00000000000E+00 -0.00000000000E+00 -0.68430312631E+01  0.68430312631E+01  0.00000000000E+00 0.  1.
          3    1    1    2  501    0 -0.13850840885E+02  0.23790114990E+02  0.75799974099E+02  0.80643979551E+02  0.00000000000E+00 0. -1.
         -3    1    1    2    0  502  0.13850840885E+02 -0.23790114990E+02  0.38431859548E+02  0.47273916622E+02  0.00000000000E+00 0.  1.
<mgrwt>
<rscale>  2 0.27528446E+02</rscale>
<asrwt>0</asrwt>
<pdfrwt beam="1">  1       21 0.18626901E-01 0.27528446E+02</pdfrwt>
<pdfrwt beam="2">  1       21 0.10527741E-02 0.27528446E+02</pdfrwt>
<totfact> 0.67458253E+07</totfact>
</mgrwt>
</event>
<event>
 4    1  0.7499963E+004  0.2139029E+02  0.7546771E-02  0.1719015E+00
         21   -1    0    0  501  502  0.00000000000E+00  0.00000000000E+00  0.69818594179E+01  0.69818594179E+01  0.00000000000E+00 0.  1.
         21   -1    0    0  502  503 -0.00000000000E+00 -0.00000000000E+00 -0.80023331622E+02  0.80023331622E+02  0.00000000000E+00 0.  1.
          5    1    1    2  501    0 -0.16978686143E+02 -0.13010333108E+02 -0.55032208225E+02  0.59043107073E+02  0.00000000000E+00 0.  1.
         -5    1    1    2    0  503  0.16978686143E+02  0.13010333108E+02 -0.18009263979E+02  0.27962083967E+02  0.00000000000E+00 0. -1.
<mgrwt>
<rscale>  2 0.21390291E+02</rscale>
<asrwt>0</asrwt>
<pdfrwt beam="1">  1       21 0.10741322E-02 0.21390291E+02</pdfrwt>
<pdfrwt beam="2">  1       21 0.12311282E-01 0.21390291E+02</pdfrwt>
<totfact> 0.12412205E+08</totfact>
</mgrwt>
</event>
<event>
 4    1  0.7499963E+004  0.2331003E+02  0.7546771E-02  0.1686533E+00
         21   -1    0    0  501  502  0.00000000000E+00  0.00000000000E+00  0.21931683914E+02  0.21931683914E+02  0.00000000000E+00 0.  1.
         21   -1    0    0  502  503 -0.00000000000E+00 -0.00000000000E+00 -0.29326528486E+02  0.29326528486E+02  0.00000000000E+00 0.  1.
          3    1    1    2  501    0  0.22699223781E+02  0.53012020523E+01  0.63993297319E+01  0.24172482795E+02  0.00000000000E+00 0. -1.
         -3    1    1    2    0  503 -0.22699223781E+02 -0.53012020523E+01 -0.13794174303E+02  0.27085729604E+02  0.00000000000E+00 0.  1.
<mgrwt>
<rscale>  2 0.23310030E+02</rscale>
<asrwt>0</asrwt>
<pdfrwt beam="1">  1       21 0.33741052E-02 0.23310030E+02</pdfrwt>
<pdfrwt beam="2">  1       21 0.45117736E-02 0.23310030E+02</pdfrwt>
<totfact> 0.11276159E+08</totfact>
</mgrwt>
</event>
<event>
 4    1  0.7499963E+004  0.2961209E+02  0.7546771E-02  0.1602417E+00
         21   -1    0    0  503  502  0.00000000000E+00  0.00000000000E+00  0.11434241813E+01  0.11434241813E+01  0.00000000000E+00 0. -1.
         21   -1    0    0  501  503 -0.00000000000E+00 -0.00000000000E+00 -0.76719897322E+03  0.76719897322E+03  0.00000000000E+00 0. -1.
          5    1    1    2  501    0  0.29260391118E+02 -0.45502867494E+01 -0.39079142927E+03  0.39191174618E+03  0.00000000000E+00 0. -1.
         -5    1    1    2    0  502 -0.29260391118E+02  0.45502867494E+01 -0.37526411976E+03  0.37643065122E+03  0.00000000000E+00 0.  1.
<mgrwt>
<rscale>  2 0.29612085E+02</rscale>
<asrwt>0</asrwt>
<pdfrwt beam="1">  1       21 0.17591058E-03 0.29612085E+02</pdfrwt>
<pdfrwt beam="2">  1       21 0.11803117E+00 0.29612085E+02</pdfrwt>
<totfact> 0.25606600E+07</totfact>
</mgrwt>
</event>
<event>
 4    1  0.7499963E+004  0.6432927E+02  0.7546771E-02  0.1380512E+00
         21   -1    0    0  503  502  0.00000000000E+00  0.00000000000E+00  0.65086216561E+02  0.65086216561E+02  0.00000000000E+00 0. -1.
         21   -1    0    0  501  503 -0.00000000000E+00 -0.00000000000E+00 -0.64227429736E+02  0.64227429736E+02  0.00000000000E+00 0. -1.
          2    1    1    2  501    0  0.63826677497E+02  0.80256283640E+01  0.69152846631E+01  0.64699896700E+02  0.00000000000E+00 0. -1.
         -2    1    1    2    0  502 -0.63826677497E+02 -0.80256283640E+01 -0.60564978380E+01  0.64613749598E+02  0.00000000000E+00 0.  1.
<mgrwt>
<rscale>  2 0.64329274E+02</rscale>
<asrwt>0</asrwt>
<pdfrwt beam="1">  1       21 0.10013264E-01 0.64329274E+02</pdfrwt>
<pdfrwt beam="2">  1       21 0.98811431E-02 0.64329274E+02</pdfrwt>
<totfact> 0.62675312E+06</totfact>
</mgrwt>
</event>
<event>
 4    1  0.7499963E+004  0.2438444E+02  0.7546771E-02  0.1670004E+00
         21   -1    0    0  503  502  0.00000000000E+00  0.00000000000E+00  0.73055169208E+02  0.73055169208E+02  0.00000000000E+00 0.  1.
         21   -1    0    0  501  503 -0.00000000000E+00 -0.00000000000E+00 -0.83338972077E+01  0.83338972077E+01  0.00000000000E+00 0.  1.
          5    1    1    2  501    0  0.22859693316E+02  0.84873497654E+01  0.26138439927E+02  0.35746590416E+02  0.00000000000E+00 0. -1.
         -5    1    1    2    0  502 -0.22859693316E+02 -0.84873497654E+01  0.38582832074E+02  0.45642476000E+02  0.00000000000E+00 0.  1.
<mgrwt>
<rscale>  2 0.24384435E+02</rscale>
<asrwt>0</asrwt>
<pdfrwt beam="1">  1       21 0.11239256E-01 0.24384435E+02</pdfrwt>
<pdfrwt beam="2">  1       21 0.12821381E-02 0.24384435E+02</pdfrwt>
<totfact> 0.11495665E+08</totfact>
</mgrwt>
</event>
<event>
 4    1  0.7499963E+004  0.2001980E+02  0.7546771E-02  0.1744935E+00
         21   -1    0    0  503  502  0.00000000000E+00  0.00000000000E+00  0.85892029644E+00  0.85892029644E+00  0.00000000000E+00 0.  1.
         21   -1    0    0  501  503 -0.00000000000E+00 -0.00000000000E+00 -0.46911417147E+03  0.46911417147E+03  0.00000000000E+00 0.  1.
          4    1    1    2  501    0 -0.93331991813E+01  0.17711118329E+02 -0.21700502954E+03  0.21792653617E+03  0.00000000000E+00 0. -1.
         -4    1    1    2    0  502  0.93331991813E+01 -0.17711118329E+02 -0.25125022164E+03  0.25204655560E+03  0.00000000000E+00 0.  1.
<mgrwt>
<rscale>  2 0.20019798E+02</rscale>
<asrwt>0</asrwt>
<pdfrwt beam="1">  1       21 0.13214158E-03 0.20019798E+02</pdfrwt>
<pdfrwt beam="2">  1       21 0.72171414E-01 0.20019798E+02</pdfrwt>
<totfact> 0.10285084E+08</totfact>
</mgrwt>
</event>
<event>
 4    1  0.7499963E+004  0.2155550E+02  0.7546771E-02  0.1716055E+00
         21   -1    0    0  501  502  0.00000000000E+00  0.00000000000E+00  0.12231313225E+02  0.12231313225E+02  0.00000000000E+00 0.  1.
         21   -1    0    0  502  503 -0.00000000000E+00 -0.00000000000E+00 -0.54628083374E+02  0.54628083374E+02  0.00000000000E+00 0.  1.
          4    1    1    2  501    0  0.16077475017E+02  0.14358081594E+02 -0.27479815169E+01  0.21729958868E+02  0.00000000000E+00 0.  1.
         -4    1    1    2    0  503 -0.16077475017E+02 -0.14358081594E+02 -0.39648788631E+02  0.45129437731E+02  0.00000000000E+00 0. -1.
<mgrwt>
<rscale>  2 0.21555503E+02</rscale>
<asrwt>0</asrwt>
<pdfrwt beam="1">  1       21 0.18817405E-02 0.21555503E+02</pdfrwt>
<pdfrwt beam="2">  1       21 0.84043206E-02 0.21555503E+02</pdfrwt>
<totfact> 0.10000237E+08</totfact>
</mgrwt>
</event>
<event>
 4    1  0.7499963E+004  0.2232066E+02  0.7546771E-02  0.1702765E+00
         21   -1    0    0  501  502  0.00000000000E+00  0.00000000000E+00  0.17954457966E+00  0.17954457966E+00  0.00000000000E+00 0.  1.
         21   -1    0    0  502  503 -0.00000000000E+00 -0.00000000000E+00 -0.27779176576E+04  0.27779176576E+04  0.00000000000E+00 0.  1.
          4    1    1    2  501    0 -0.21610914125E+02 -0.55839158776E+01 -0.13428122805E+04  0.13429977783E+04  0.00000000000E+00 0. -1.
         -4    1    1    2    0  503  0.21610914125E+02  0.55839158776E+01 -0.14349258325E+04  0.14350994239E+04  0.00000000000E+00 0.  1.
<mgrwt>
<rscale>  2 0.22320657E+02</rscale>
<asrwt>0</asrwt>
<pdfrwt beam="1">  1       21 0.27618760E-04 0.22320657E+02</pdfrwt>
<pdfrwt beam="2">  1       21 0.42742585E+00 0.22320657E+02</pdfrwt>
<totfact> 0.65890905E+06</totfact>
</mgrwt>
</event>
<event>
 4    1  0.7499963E+004  0.2639777E+02  0.7546771E-02  0.1641700E+00
         21   -1    0    0  503  502  0.00000000000E+00  0.00000000000E+00  0.10403524927E+02  0.10403524927E+02  0.00000000000E+00 0. -1.
         21   -1    0    0  501  503 -0.00000000000E+00 -0.00000000000E+00 -0.66990469042E+02  0.66990469042E+02  0.00000000000E+00 0. -1.
          4    1    1    2  501    0  0.25032266455E+02  0.83802193726E+01 -0.28744253715E+02  0.39026587889E+02  0.00000000000E+00 0.  1.
         -4    1    1    2    0  502 -0.25032266455E+02 -0.83802193726E+01 -0.27842690400E+02  0.38367406080E+02  0.00000000000E+00 0. -1.
<mgrwt>
<rscale>  2 0.26397773E+02</rscale>
<asrwt>0</asrwt>
<pdfrwt beam="1">  1       21 0.16005423E-02 0.26397773E+02</pdfrwt>
<pdfrwt beam="2">  1       21 0.10306226E-01 0.26397773E+02</pdfrwt>
<totfact> 0.96761590E+07</totfact>
</mgrwt>
</event>
<event>
 4    1  0.7499963E+004  0.2159810E+02  0.7546771E-02  0.1715297E+00
         21   -1    0    0  503  502  0.00000000000E+00  0.00000000000E+00  0.17146086143E+03  0.17146086143E+03  0.00000000000E+00 0. -1.
         21   -1    0    0  501  503 -0.00000000000E+00 -0.00000000000E+00 -0.33098828624E+01  0.33098828624E+01  0.00000000000E+00 0. -1.
          1    1    1    2  501    0 -0.21539479336E+02 -0.15902558196E+01  0.47203993412E+02  0.51910452490E+02  0.00000000000E+00 0.  1.
         -1    1    1    2    0  502  0.21539479336E+02  0.15902558196E+01  0.12094698516E+03  0.12286029181E+03  0.00000000000E+00 0. -1.
<mgrwt>
<rscale>  2 0.21598104E+02</rscale>
<asrwt>0</asrwt>
<pdfrwt beam="1">  1       21 0.26378587E-01 0.21598104E+02</pdfrwt>
<pdfrwt beam="2">  1       21 0.50921288E-03 0.21598104E+02</pdfrwt>
<totfact> 0.10132602E+08</totfact>
</mgrwt>
</event>
<event>
 4    1  0.7499963E+004  0.2318117E+02  0.7546771E-02  0.1688590E+00
         21   -1    0    0  503  502  0.00000000000E+00  0.00000000000E+00  0.13240172198E+03  0.13240172198E+03  0.00000000000E+00 0. -1.
         21   -1    0    0  501  503 -0.00000000000E+00 -0.00000000000E+00 -0.45818878716E+01  0.45818878716E+01  0.00000000000E+00 0. -1.
          3    1    1    2  501    0  0.10722491916E+02 -0.20552244148E+02  0.40763500756E+02  0.46893811600E+02  0.00000000000E+00 0. -1.
         -3    1    1    2    0  502 -0.10722491916E+02  0.20552244148E+02  0.87056333352E+02  0.90089798252E+02  0.00000000000E+00 0.  1.
<mgrwt>
<rscale>  2 0.23181168E+02</rscale>
<asrwt>0</asrwt>
<pdfrwt beam="1">  1       21 0.20369493E-01 0.23181168E+02</pdfrwt>
<pdfrwt beam="2">  1       21 0.70490593E-03 0.23181168E+02</pdfrwt>
<totfact> 0.10083520E+08</totfact>
</mgrwt>
</event>
<event>
 4    1  0.7499963E+004  0.2106092E+02  0.7546771E-02  0.1725018E+00
         21   -1    0    0  503  502  0.00000000000E+00  0.00000000000E+00  0.16878614123E+02  0.16878614123E+02  0.00000000000E+00 0.  1.
         21   -1    0    0  501  503 -0.00000000000E+00 -0.00000000000E+00 -0.26348613577E+02  0.26348613577E+02  0.00000000000E+00 0.  1.
          2    1    1    2  501    0 -0.92612106186E+01  0.18915394172E+02 -0.36283378719E+01  0.21371172043E+02  0.00000000000E+00 0. -1.
         -2    1    1    2    0  502  0.92612106186E+01 -0.18915394172E+02 -0.58416615825E+01  0.21856055656E+02  0.00000000000E+00 0.  1.
<mgrwt>
<rscale>  2 0.21060915E+02</rscale>
<asrwt>0</asrwt>
<pdfrwt beam="1">  1       21 0.25967099E-02 0.21060915E+02</pdfrwt>
<pdfrwt beam="2">  1       21 0.40536328E-02 0.21060915E+02</pdfrwt>
<totfact> 0.19445642E+08</totfact>
</mgrwt>
</event>
<event>
 4    1  0.7499963E+004  0.2307463E+02  0.7546771E-02  0.1690303E+00
         21   -1    0    0  503  502  0.00000000000E+00  0.00000000000E+00  0.16215842642E+03  0.16215842642E+03  0.00000000000E+00 0.  1.
         21   -1    0    0  501  503 -0.00000000000E+00 -0.00000000000E+00 -0.33474937586E+01  0.33474937586E+01  0.00000000000E+00 0.  1.
          5    1    1    2  501    0 -0.22469094198E+02  0.52514890745E+01  0.67958831893E+02  0.71769360899E+02  0.00000000000E+00 0.  1.
         -5    1    1    2    0  502  0.22469094198E+02 -0.52514890745E+01  0.90852100767E+02  0.93736559278E+02  0.00000000000E+00 0. -1.
<mgrwt>
<rscale>  2 0.23074625E+02</rscale>
<asrwt>0</asrwt>
<pdfrwt beam="1">  1       21 0.24947444E-01 0.23074625E+02</pdfrwt>
<pdfrwt beam="2">  1       21 0.51499917E-03 0.23074625E+02</pdfrwt>
<totfact> 0.11211981E+08</totfact>
</mgrwt>
</event>
<event>
 4    1  0.7499963E+004  0.2710007E+02  0.7546771E-02  0.1632550E+00
         21   -1    0    0  503  502  0.00000000000E+00  0.00000000000E+00  0.51590966831E+01  0.51590966831E+01  0.00000000000E+00 0. -1.
         21   -1    0    0  501  503 -0.00000000000E+00 -0.00000000000E+00 -0.14606083552E+03  0.14606083552E+03  0.00000000000E+00 0. -1.
          2    1    1    2  501    0  0.20685653709E+02  0.17507639229E+02 -0.82497433113E+02  0.86834556318E+02  0.00000000000E+00 0. -1.
         -2    1    1    2    0  502 -0.20685653709E+02 -0.17507639229E+02 -0.58404305722E+02  0.64385375883E+02  0.00000000000E+00 0.  1.
<mgrwt>
<rscale>  2 0.27100068E+02</rscale>
<asrwt>0</asrwt>
<pdfrwt beam="1">  1       21 0.79370719E-03 0.27100068E+02</pdfrwt>
<pdfrwt beam="2">  1       21 0.22470898E-01 0.27100068E+02</pdfrwt>
<totfact> 0.73921461E+07</totfact>
</mgrwt>
</event>
<event>
 4    1  0.7499963E+004  0.2331745E+02  0.7546771E-02  0.1686415E+00
         21   -1    0    0  503  502  0.00000000000E+00  0.00000000000E+00  0.43642186591E+01  0.43642186591E+01  0.00000000000E+00 0. -1.
         21   -1    0    0  501  503 -0.00000000000E+00 -0.00000000000E+00 -0.13828423028E+03  0.13828423028E+03  0.00000000000E+00 0. -1.
          3    1    1    2  501    0 -0.14180089549E+02  0.18510223598E+02 -0.44508497019E+02  0.50246488674E+02  0.00000000000E+00 0. -1.
         -3    1    1    2    0  502  0.14180089549E+02 -0.18510223598E+02 -0.89411514599E+02  0.92401960262E+02  0.00000000000E+00 0.  1.
<mgrwt>
<rscale>  2 0.23317447E+02</rscale>
<asrwt>0</asrwt>
<pdfrwt beam="1">  1       21 0.67141829E-03 0.23317447E+02</pdfrwt>
<pdfrwt beam="2">  1       21 0.21274496E-01 0.23317447E+02</pdfrwt>
<totfact> 0.10061766E+08</totfact>
</mgrwt>
</event>
<event>
 4    1  0.7499963E+004  0.2130522E+02  0.7546771E-02  0.1720552E+00
         21   -1    0    0  503  502  0.00000000000E+00  0.00000000000E+00  0.42010777454E+01  0.42010777454E+01  0.00000000000E+00 0. -1.
         21   -1    0    0  501  503 -0.00000000000E+00 -0.00000000000E+00 -0.11053786364E+03  0.11053786364E+03  0.00000000000E+00 0. -1.
          3    1    1    2  501    0  0.85972974665E+01 -0.19493555769E+02 -0.61780980085E+02  0.65351371375E+02  0.00000000000E+00 0. -1.
         -3    1    1    2    0  502 -0.85972974665E+01  0.19493555769E+02 -0.44555805813E+02  0.49387570014E+02  0.00000000000E+00 0.  1.
<mgrwt>
<rscale>  2 0.21305216E+02</rscale>
<asrwt>0</asrwt>
<pdfrwt beam="1">  1       21 0.64631974E-03 0.21305216E+02</pdfrwt>
<pdfrwt beam="2">  1       21 0.17005823E-01 0.21305216E+02</pdfrwt>
<totfact> 0.15300022E+08</totfact>
</mgrwt>
</event>
<event>
 4    1  0.7499963E+004  0.2915537E+02  0.7546771E-02  0.1607617E+00
         21   -1    0    0  501  502  0.00000000000E+00  0.00000000000E+00  0.38597983517E+02  0.38597983517E+02  0.00000000000E+00 0. -1.
         21   -1    0    0  502  503 -0.00000000000E+00 -0.00000000000E+00 -0.24992002739E+02  0.24992002739E+02  0.00000000000E+00 0. -1.
          1    1    1    2  501    0  0.56100124267E+01  0.28610547643E+02 -0.41561912062E+01  0.29450120564E+02  0.00000000000E+00 0. -1.
         -1    1    1    2    0  503 -0.56100124267E+01 -0.28610547643E+02  0.17762171985E+02  0.34139865692E+02  0.00000000000E+00 0.  1.
<mgrwt>
<rscale>  2 0.29155371E+02</rscale>
<asrwt>0</asrwt>
<pdfrwt beam="1">  1       21 0.59381513E-02 0.29155371E+02</pdfrwt>
<pdfrwt beam="2">  1       21 0.38449235E-02 0.29155371E+02</pdfrwt>
<totfact> 0.62658950E+07</totfact>
</mgrwt>
</event>
<event>
 4    1  0.7499963E+004  0.2289148E+02  0.7546771E-02  0.1693275E+00
         21   -1    0    0  503  502  0.00000000000E+00  0.00000000000E+00  0.90235186097E+02  0.90235186097E+02  0.00000000000E+00 0. -1.
         21   -1    0    0  501  503 -0.00000000000E+00 -0.00000000000E+00 -0.58077438504E+01  0.58077438504E+01  0.00000000000E+00 0. -1.
          1    1    1    2  501    0  0.12601906556E+02 -0.19110515023E+02  0.41778662440E+02  0.47639022540E+02  0.00000000000E+00 0. -1.
         -1    1    1    2    0  502 -0.12601906556E+02  0.19110515023E+02  0.42648779807E+02  0.48403907408E+02  0.00000000000E+00 0.  1.
<mgrwt>
<rscale>  2 0.22891479E+02</rscale>
<asrwt>0</asrwt>
<pdfrwt beam="1">  1       21 0.13882335E-01 0.22891479E+02</pdfrwt>
<pdfrwt beam="2">  1       21 0.89349912E-03 0.22891479E+02</pdfrwt>
<totfact> 0.13634488E+08</totfact>
</mgrwt>
</event>
<event>
 4    1  0.7499963E+004  0.2894045E+02  0.7546771E-02  0.1610105E+00
         21   -1    0    0  501  502  0.00000000000E+00  0.00000000000E+00  0.29026251523E+03  0.29026251523E+03  0.00000000000E+00 0.  1.
         21   -1    0    0  502  503 -0.00000000000E+00 -0.00000000000E+00 -0.28861647918E+01  0.28861647918E+01  0.00000000000E+00 0.  1.
          1    1    1    2  501    0 -0.49601997596E+00  0.28936195678E+02  0.14144622901E+03  0.14437653950E+03  0.00000000000E+00 0. -1.
         -1    1    1    2    0  503  0.49601997596E+00 -0.28936195678E+02  0.14593012143E+03  0.14877214053E+03  0.00000000000E+00 0.  1.
<mgrwt>
<rscale>  2 0.28940447E+02</rscale>
<asrwt>0</asrwt>
<pdfrwt beam="1">  1       21 0.44655748E-01 0.28940447E+02</pdfrwt>
<pdfrwt beam="2">  1       21 0.44402558E-03 0.28940447E+02</pdfrwt>
<totfact> 0.50131241E+07</totfact>
</mgrwt>
</event>
<event>
 4    1  0.7499963E+004  0.2209051E+02  0.7546771E-02  0.1706691E+00
         21   -1    0    0  503  502  0.00000000000E+00  0.00000000000E+00  0.32816643351E+02  0.32816643351E+02  0.00000000000E+00 0.  1.
         21   -1    0    0  501  503 -0.00000000000E+00 -0.00000000000E+00 -0.16573885889E+02  0.16573885889E+02  0.00000000000E+00 0.  1.
          3    1    1    2  501    0  0.22073870602E+02 -0.85724868417E+00  0.16038986593E+02  0.27299079282E+02  0.00000000000E+00 0.  1.
         -3    1    1    2    0  502 -0.22073870602E+02  0.85724868417E+00  0.20377086909E+00  0.22091449958E+02  0.00000000000E+00 0. -1.
<mgrwt>
<rscale>  2 0.22090510E+02</rscale>
<asrwt>0</asrwt>
<pdfrwt beam="1">  1       21 0.50487144E-02 0.22090510E+02</pdfrwt>
<pdfrwt beam="2">  1       21 0.25498286E-02 0.22090510E+02</pdfrwt>
<totfact> 0.14349444E+08</totfact>
</mgrwt>
</event>
<event>
 4    1  0.7499963E+004  0.2329369E+02  0.7546771E-02  0.1686793E+00
         21   -1    0    0  501  502  0.00000000000E+00  0.00000000000E+00  0.12636400297E+01  0.12636400297E+01  0.00000000000E+00 0.  1.
         21   -1    0    0  502  503 -0.00000000000E+00 -0.00000000000E+00 -0.55501655647E+03  0.55501655647E+03  0.00000000000E+00 0.  1.
          5    1    1    2  501    0 -0.12375367621E+02 -0.19734398123E+02 -0.40920358997E+03  0.40986604426E+03  0.00000000000E+00 0.  1.
         -5    1    1    2    0  503  0.12375367621E+02  0.19734398123E+02 -0.14454932647E+03  0.14641415224E+03  0.00000000000E+00 0. -1.
<mgrwt>
<rscale>  2 0.23293694E+02</rscale>
<asrwt>0</asrwt>
<pdfrwt beam="1">  1       21 0.19440648E-03 0.23293694E+02</pdfrwt>
<pdfrwt beam="2">  1       21 0.85387023E-01 0.23293694E+02</pdfrwt>
<totfact> 0.43199554E+07</totfact>
</mgrwt>
</event>
<event>
 4    1  0.7499963E+004  0.3963984E+02  0.7546771E-02  0.1510879E+00
         21   -1    0    0  503  502  0.00000000000E+00  0.00000000000E+00  0.15439414609E+02  0.15439414609E+02  0.00000000000E+00 0.  1.
         21   -1    0    0  501  503 -0.00000000000E+00 -0.00000000000E+00 -0.10475483323E+03  0.10475483323E+03  0.00000000000E+00 0.  1.
          4    1    1    2  501    0  0.24007935901E+01 -0.39567067422E+02 -0.54796897450E+02  0.67631476432E+02  0.00000000000E+00 0. -1.
         -4    1    1    2    0  502 -0.24007935901E+01  0.39567067422E+02 -0.34518521170E+02  0.52562771407E+02  0.00000000000E+00 0.  1.
<mgrwt>
<rscale>  2 0.39639836E+02</rscale>
<asrwt>0</asrwt>
<pdfrwt beam="1">  1       21 0.23752945E-02 0.39639836E+02</pdfrwt>
<pdfrwt beam="2">  1       21 0.16116128E-01 0.39639836E+02</pdfrwt>
<totfact> 0.26657928E+07</totfact>
</mgrwt>
</event>
<event>
 4    1  0.7499963E+004  0.2659958E+02  0.7546771E-02  0.1639035E+00
         21   -1    0    0  501  502  0.00000000000E+00  0.00000000000E+00  0.18560692763E+02  0.18560692763E+02  0.00000000000E+00 0. -1.
         21   -1    0    0  502  503 -0.00000000000E+00 -0.00000000000E+00 -0.38388802853E+02  0.38388802853E+02  0.00000000000E+00 0. -1.
          4    1    1    2  501    0  0.25145615315E+02 -0.86738492133E+01 -0.12295822916E+02  0.29304008103E+02  0.00000000000E+00 0.  1.
         -4    1    1    2    0  503 -0.25145615315E+02  0.86738492133E+01 -0.75322871752E+01  0.27645487513E+02  0.00000000000E+00 0. -1.
<mgrwt>
<rscale>  2 0.26599580E+02</rscale>
<asrwt>0</asrwt>
<pdfrwt beam="1">  1       21 0.28554912E-02 0.26599580E+02</pdfrwt>
<pdfrwt beam="2">  1       21 0.59059696E-02 0.26599580E+02</pdfrwt>
<totfact> 0.98680157E+07</totfact>
</mgrwt>
</event>
<event>
 4    1  0.7499963E+004  0.4860300E+02  0.7546771E-02  0.1453026E+00
         21   -1    0    0  501  502  0.00000000000E+00  0.00000000000E+00  0.57415673554E+02  0.57415673554E+02  0.00000000000E+00 0. -1.
         21   -1    0    0  502  503 -0.00000000000E+00 -0.00000000000E+00 -0.41711574126E+02  0.41711574126E+02  0.00000000000E+00 0. -1.
          5    1    1    2  501    0  0.46587072534E+02 -0.13852662022E+02  0.13638845861E+02  0.50480389151E+02  0.00000000000E+00 0. -1.
         -5    1    1    2    0  503 -0.46587072534E+02  0.13852662022E+02  0.20652535674E+01  0.48646858529E+02  0.00000000000E+00 0.  1.
<mgrwt>
<rscale>  2 0.48603000E+02</rscale>
<asrwt>0</asrwt>
<pdfrwt beam="1">  1       21 0.88331805E-02 0.48603000E+02</pdfrwt>
<pdfrwt beam="2">  1       21 0.64171653E-02 0.48603000E+02</pdfrwt>
<totfact> 0.15553632E+07</totfact>
</mgrwt>
</event>
<event>
 4    1  0.7499963E+004  0.2146272E+02  0.7546771E-02  0.1717713E+00
         21   -1    0    0  501  502  0.00000000000E+00  0.00000000000E+00  0.13738682475E+03  0.13738682475E+03  0.00000000000E+00 0. -1.
         21   -1    0    0  502  503 -0.00000000000E+00 -0.00000000000E+00 -0.33543450499E+01  0.33543450499E+01  0.00000000000E+00 0. -1.
          2    1    1    2  501    0 -0.18658652980E+02  0.10606749539E+02  0.65571114276E+02  0.68994343929E+02  0.00000000000E+00 0. -1.
         -2    1    1    2    0  503  0.18658652980E+02 -0.10606749539E+02  0.68461365422E+02  0.71746825869E+02  0.00000000000E+00 0.  1.
<mgrwt>
<rscale>  2 0.21462723E+02</rscale>
<asrwt>0</asrwt>
<pdfrwt beam="1">  1       21 0.21136430E-01 0.21462723E+02</pdfrwt>
<pdfrwt beam="2">  1       21 0.51605319E-03 0.21462723E+02</pdfrwt>
<totfact> 0.14672395E+08</totfact>
</mgrwt>
</event>
<event>
 4    1  0.7499963E+004  0.3625980E+02  0.7546771E-02  0.1537690E+00
         21   -1    0    0  503  502  0.00000000000E+00  0.00000000000E+00  0.23661441414E+01  0.23661441414E+01  0.00000000000E+00 0.  1.
         21   -1    0    0  501  503 -0.00000000000E+00 -0.00000000000E+00 -0.55973792407E+03  0.55973792407E+03  0.00000000000E+00 0.  1.
          2    1    1    2  501    0  0.34692041210E+02 -0.10546817670E+02 -0.30267320783E+03  0.30483740556E+03  0.00000000000E+00 0.  1.
         -2    1    1    2    0  502 -0.34692041210E+02  0.10546817670E+02 -0.25469857210E+03  0.25726666266E+03  0.00000000000E+00 0. -1.
<mgrwt>
<rscale>  2 0.36259800E+02</rscale>
<asrwt>0</asrwt>
<pdfrwt beam="1">  1       21 0.36402160E-03 0.36259800E+02</pdfrwt>
<pdfrwt beam="2">  1       21 0.86113664E-01 0.36259800E+02</pdfrwt>
<totfact> 0.18314796E+07</totfact>
</mgrwt>
</event>
<event>
 4    1  0.7499963E+004  0.3467030E+02  0.7546771E-02  0.1551548E+00
         21   -1    0    0  501  502  0.00000000000E+00  0.00000000000E+00  0.90453586103E+01  0.90453586103E+01  0.00000000000E+00 0. -1.
         21   -1    0    0  502  503 -0.00000000000E+00 -0.00000000000E+00 -0.13679087443E+03  0.13679087443E+03  0.00000000000E+00 0. -1.
          4    1    1    2  501    0 -0.99608449112E+01  0.33208598793E+02 -0.76187875770E+02  0.83705566598E+02  0.00000000000E+00 0. -1.
         -4    1    1    2    0  503  0.99608449112E+01 -0.33208598793E+02 -0.51557640054E+02  0.62130666447E+02  0.00000000000E+00 0.  1.
<mgrwt>
<rscale>  2 0.34670297E+02</rscale>
<asrwt>0</asrwt>
<pdfrwt beam="1">  1       21 0.13915937E-02 0.34670297E+02</pdfrwt>
<pdfrwt beam="2">  1       21 0.21044749E-01 0.34670297E+02</pdfrwt>
<totfact> 0.37324850E+07</totfact>
</mgrwt>
</event>
<event>
 4    1  0.7499963E+004  0.4252612E+02  0.7546771E-02  0.1490404E+00
         21   -1    0    0  501  502  0.00000000000E+00  0.00000000000E+00  0.15356552288E+02  0.15356552288E+02  0.00000000000E+00 0. -1.
         21   -1    0    0  502  503 -0.00000000000E+00 -0.00000000000E+00 -0.18035231346E+03  0.18035231346E+03  0.00000000000E+00 0. -1.
          4    1    1    2  501    0  0.42408306987E+02 -0.31633212766E+01 -0.24852928625E+02  0.49255854111E+02  0.00000000000E+00 0. -1.
         -4    1    1    2    0  503 -0.42408306987E+02  0.31633212766E+01 -0.14014283255E+03  0.14645301164E+03  0.00000000000E+00 0.  1.
<mgrwt>
<rscale>  2 0.42526123E+02</rscale>
<asrwt>0</asrwt>
<pdfrwt beam="1">  1       21 0.23625465E-02 0.42526123E+02</pdfrwt>
<pdfrwt beam="2">  1       21 0.27746509E-01 0.42526123E+02</pdfrwt>
<totfact> 0.10244269E+07</totfact>
</mgrwt>
</event>
<event>
 4    1  0.7499963E+004  0.2772284E+02  0.7546771E-02  0.1624716E+00
         21   -1    0    0  501  502  0.00000000000E+00  0.00000000000E+00  0.31514925646E+01  0.31514925646E+01  0.00000000000E+00 0.  1.
         21   -1    0    0  502  503 -0.00000000000E+00 -0.00000000000E+00 -0.29146531769E+03  0.29146531769E+03  0.00000000000E+00 0.  1.
          3    1    1    2  501    0 -0.27310798311E+02 -0.47619432867E+01 -0.20368395350E+03  0.20556193403E+03  0.00000000000E+00 0. -1.
         -3    1    1    2    0  503  0.27310798311E+02  0.47619432867E+01 -0.84629871620E+02  0.89054876221E+02  0.00000000000E+00 0.  1.
<mgrwt>
<rscale>  2 0.27722839E+02</rscale>
<asrwt>0</asrwt>
<pdfrwt beam="1">  1       21 0.48484501E-03 0.27722839E+02</pdfrwt>
<pdfrwt beam="2">  1       21 0.44840818E-01 0.27722839E+02</pdfrwt>
<totfact> 0.43260531E+07</totfact>
</mgrwt>
</event>
<event>
 4    1  0.7499963E+004  0.2426610E+02  0.7546771E-02  0.1671773E+00
         21   -1    0    0  503  502  0.00000000000E+00  0.00000000000E+00  0.47385042559E+02  0.47385042559E+02  0.00000000000E+00 0. -1.
         21   -1    0    0  501  503 -0.00000000000E+00 -0.00000000000E+00 -0.17036648675E+02  0.17036648675E+02  0.00000000000E+00 0. -1.
          2    1    1    2  501    0 -0.14311316363E+02  0.19596679289E+02  0.31929573937E+02  0.40104130797E+02  0.00000000000E+00 0. -1.
         -2    1    1    2    0  502  0.14311316363E+02 -0.19596679289E+02 -0.15811800537E+01  0.24317560436E+02  0.00000000000E+00 0.  1.
<mgrwt>
<rscale>  2 0.24266100E+02</rscale>
<asrwt>0</asrwt>
<pdfrwt beam="1">  1       21 0.72900065E-02 0.24266100E+02</pdfrwt>
<pdfrwt beam="2">  1       21 0.26210229E-02 0.24266100E+02</pdfrwt>
<totfact> 0.78272715E+07</totfact>
</mgrwt>
</event>
<event>
 4    1  0.7499963E+004  0.2317751E+02  0.7546771E-02  0.1688649E+00
         21   -1    0    0  501  502  0.00000000000E+00  0.00000000000E+00  0.16694098365E+01  0.16694098365E+01  0.00000000000E+00 0.  1.
         21   -1    0    0  502  503 -0.00000000000E+00 -0.00000000000E+00 -0.39384780703E+03  0.39384780703E+03  0.00000000000E+00 0.  1.
          4    1    1    2  501    0 -0.20074497769E+02  0.11584962967E+02 -0.11149972356E+03  0.11388320851E+03  0.00000000000E+00 0. -1.
         -4    1    1    2    0  503  0.20074497769E+02 -0.11584962967E+02 -0.28067867364E+03  0.28163400835E+03  0.00000000000E+00 0.  1.
<mgrwt>
<rscale>  2 0.23177507E+02</rscale>
<asrwt>0</asrwt>
<pdfrwt beam="1">  1       21 0.25683203E-03 0.23177507E+02</pdfrwt>
<pdfrwt beam="2">  1       21 0.60592030E-01 0.23177507E+02</pdfrwt>
<totfact> 0.58475103E+07</totfact>
</mgrwt>
</event>
<event>
 4    1  0.7499963E+004  0.2086124E+02  0.7546771E-02  0.1728724E+00
         21   -1    0    0  503  502  0.00000000000E+00  0.00000000000E+00  0.10813382316E+02  0.10813382316E+02  0.00000000000E+00 0. -1.
         21   -1    0    0  501  503 -0.00000000000E+00 -0.00000000000E+00 -0.41286430318E+02  0.41286430318E+02  0.00000000000E+00 0. -1.
          3    1    1    2  501    0 -0.12887300572E+02  0.16404532631E+02 -0.19372610558E+02  0.28469092832E+02  0.00000000000E+00 0. -1.
         -3    1    1    2    0  502  0.12887300572E+02 -0.16404532631E+02 -0.11100437445E+02  0.23630719801E+02  0.00000000000E+00 0.  1.
<mgrwt>
<rscale>  2 0.20861237E+02</rscale>
<asrwt>0</asrwt>
<pdfrwt beam="1">  1       21 0.16635973E-02 0.20861237E+02</pdfrwt>
<pdfrwt beam="2">  1       21 0.63517584E-02 0.20861237E+02</pdfrwt>
<totfact> 0.18792047E+08</totfact>
</mgrwt>
</event>
<event>
 4    1  0.7499963E+004  0.2415923E+02  0.7546771E-02  0.1673380E+00
         21   -1    0    0  503  502  0.00000000000E+00  0.00000000000E+00  0.77758798390E+01  0.77758798390E+01  0.00000000000E+00 0.  1.
         21   -1    0    0  501  503 -0.00000000000E+00 -0.00000000000E+00 -0.75067981699E+02  0.75067981699E+02  0.00000000000E+00 0.  1.
          5    1    1    2  501    0  0.18072274911E+02  0.16033124312E+02 -0.34034783618E+02  0.41737689102E+02  0.00000000000E+00 0.  1.
         -5    1    1    2    0  502 -0.18072274911E+02 -0.16033124312E+02 -0.33257318242E+02  0.41106172436E+02  0.00000000000E+00 0. -1.
<mgrwt>
<rscale>  2 0.24159226E+02</rscale>
<asrwt>0</asrwt>
<pdfrwt beam="1">  1       21 0.11962892E-02 0.24159226E+02</pdfrwt>
<pdfrwt beam="2">  1       21 0.11548921E-01 0.24159226E+02</pdfrwt>
<totfact> 0.12167817E+08</totfact>
</mgrwt>
</event>
<event>
 4    1  0.7499963E+004  0.2488761E+02  0.7546771E-02  0.1662621E+00
         21   -1    0    0  501  502  0.00000000000E+00  0.00000000000E+00  0.12871462494E+03  0.12871462494E+03  0.00000000000E+00 0. -1.
         21   -1    0    0  502  503 -0.00000000000E+00 -0.00000000000E+00 -0.53356600363E+01  0.53356600363E+01  0.00000000000E+00 0. -1.
          2    1    1    2  501    0  0.13783228651E+02  0.20722353238E+02  0.40694832054E+02  0.47701809942E+02  0.00000000000E+00 0. -1.
         -2    1    1    2    0  503 -0.13783228651E+02 -0.20722353238E+02  0.82684132846E+02  0.86348475031E+02  0.00000000000E+00 0.  1.
<mgrwt>
<rscale>  2 0.24887614E+02</rscale>
<asrwt>0</asrwt>
<pdfrwt beam="1">  1       21 0.19802248E-01 0.24887614E+02</pdfrwt>
<pdfrwt beam="2">  1       21 0.82087087E-03 0.24887614E+02</pdfrwt>
<totfact> 0.86010169E+07</totfact>
</mgrwt>
</event>
<event>
 4    1  0.7499963E+004  0.2586587E+02  0.7546771E-02  0.1648868E+00
         21   -1    0    0  503  502  0.00000000000E+00  0.00000000000E+00  0.62222891226E+02  0.62222891226E+02  0.00000000000E+00 0. -1.
         21   -1    0    0  501  503 -0.00000000000E+00 -0.00000000000E+00 -0.10835126866E+02  0.10835126866E+02  0.00000000000E+00 0. -1.
          1    1    1    2  501    0  0.19030400051E+02  0.17518191008E+02  0.22501314907E+02  0.34283411656E+02  0.00000000000E+00 0. -1.
         -1    1    1    2    0  502 -0.19030400051E+02 -0.17518191008E+02  0.28886449454E+02  0.38774606436E+02  0.00000000000E+00 0.  1.
<mgrwt>
<rscale>  2 0.25865868E+02</rscale>
<asrwt>0</asrwt>
<pdfrwt beam="1">  1       21 0.95727523E-02 0.25865868E+02</pdfrwt>
<pdfrwt beam="2">  1       21 0.16669426E-02 0.25865868E+02</pdfrwt>
<totfact> 0.10224931E+08</totfact>
</mgrwt>
</event>
<event>
 4    1  0.7499963E+004  0.2396027E+02  0.7546771E-02  0.1676401E+00
         21   -1    0    0  501  502  0.00000000000E+00  0.00000000000E+00  0.22729250331E+01  0.22729250331E+01  0.00000000000E+00 0.  1.
         21   -1    0    0  502  503 -0.00000000000E+00 -0.00000000000E+00 -0.25494990354E+03  0.25494990354E+03  0.00000000000E+00 0.  1.
          3    1    1    2  501    0  0.16746389408E+02 -0.17136309645E+02 -0.11393776109E+03  0.11642984183E+03  0.00000000000E+00 0.  1.
         -3    1    1    2    0  503 -0.16746389408E+02  0.17136309645E+02 -0.13873921741E+03  0.14079298674E+03  0.00000000000E+00 0. -1.
<mgrwt>
<rscale>  2 0.23960273E+02</rscale>
<asrwt>0</asrwt>
<pdfrwt beam="1">  1       21 0.34968095E-03 0.23960273E+02</pdfrwt>
<pdfrwt beam="2">  1       21 0.39223042E-01 0.23960273E+02</pdfrwt>
<totfact> 0.87400294E+07</totfact>
</mgrwt>
</event>
<event>
 4    1  0.7499963E+004  0.2171643E+02  0.7546771E-02  0.1713203E+00
         21   -1    0    0  503  502  0.00000000000E+00  0.00000000000E+00  0.42772360618E+02  0.42772360618E+02  0.00000000000E+00 0.  1.
         21   -1    0    0  501  503 -0.00000000000E+00 -0.00000000000E+00 -0.11592793287E+02  0.11592793287E+02  0.00000000000E+00 0.  1.
          5    1    1    2  501    0 -0.73646865323E+01  0.20429511374E+02  0.95787483262E+01  0.23735120859E+02  0.00000000000E+00 0. -1.
         -5    1    1    2    0  502  0.73646865323E+01 -0.20429511374E+02  0.21600819005E+02  0.30630033046E+02  0.00000000000E+00 0.  1.
<mgrwt>
<rscale>  2 0.21716435E+02</rscale>
<asrwt>0</asrwt>
<pdfrwt beam="1">  1       21 0.65803631E-02 0.21716435E+02</pdfrwt>
<pdfrwt beam="2">  1       21 0.17835067E-02 0.21716435E+02</pdfrwt>
<totfact> 0.16171299E+08</totfact>
</mgrwt>
</event>
<event>
 4    1  0.7499963E+004  0.2036293E+02  0.7546771E-02  0.1738206E+00
         21   -1    0    0  503  502  0.00000000000E+00  0.00000000000E+00  0.26530839322E+03  0.26530839322E+03  0.00000000000E+00 0. -1.
         21   -1    0    0  501  503 -0.00000000000E+00 -0.00000000000E+00 -0.15642058522E+01  0.15642058522E+01  0.00000000000E+00 0. -1.
          2    1    1    2  501    0 -0.20325113395E+02  0.12404951941E+01  0.12800873241E+03  0.12961822648E+03  0.00000000000E+00 0. -1.
         -2    1    1    2    0  502  0.20325113395E+02 -0.12404951941E+01  0.13573545497E+03  0.13725437260E+03  0.00000000000E+00 0.  1.
<mgrwt>
<rscale>  2 0.20362934E+02</rscale>
<asrwt>0</asrwt>
<pdfrwt beam="1">  1       21 0.40816640E-01 0.20362934E+02</pdfrwt>
<pdfrwt beam="2">  1       21 0.24064726E-03 0.20362934E+02</pdfrwt>
<totfact> 0.13361476E+08</totfact>
</mgrwt>
</event>
<event>
 4    1  0.7499963E+004  0.2500695E+02  0.7546771E-02  0.1660902E+00
         21   -1    0    0  503  502  0.00000000000E+00  0.00000000000E+00  0.16665966986E+03  0.16665966986E+03  0.00000000000E+00 0.  1.
         21   -1    0    0  501  503 -0.00000000000E+00 -0.00000000000E+00 -0.40707140342E+01  0.40707140342E+01  0.00000000000E+00 0.  1.
          2    1    1    2  501    0  0.33552354771E+01 -0.24780840140E+02  0.10517150395E+03  0.10810362106E+03  0.00000000000E+00 0. -1.
         -2    1    1    2    0  502 -0.33552354771E+01  0.24780840140E+02  0.57417451872E+02  0.62626762831E+02  0.00000000000E+00 0.  1.
<mgrwt>
<rscale>  2 0.25006952E+02</rscale>
<asrwt>0</asrwt>
<pdfrwt beam="1">  1       21 0.25639944E-01 0.25006952E+02</pdfrwt>
<pdfrwt beam="2">  1       21 0.62626383E-03 0.25006952E+02</pdfrwt>
<totfact> 0.81613526E+07</totfact>
</mgrwt>
</event>
<event>
 4    1  0.7499963E+004  0.2744081E+02  0.7546771E-02  0.1628232E+00
         21   -1    0    0  503  502  0.00000000000E+00  0.00000000000E+00  0.61016487140E+03  0.61016487140E+03  0.00000000000E+00 0. -1.
         21   -1    0    0  501  503 -0.00000000000E+00 -0.00000000000E+00 -0.28701182347E+01  0.28701182347E+01  0.00000000000E+00 0. -1.
          3    1    1    2  501    0 -0.25766528393E+02  0.94384231621E+01  0.53506737704E+03  0.53577056264E+03  0.00000000000E+00 0. -1.
         -3    1    1    2    0  502  0.25766528393E+02 -0.94384231621E+01  0.72227376129E+02  0.77264427000E+02  0.00000000000E+00 0.  1.
<mgrwt>
<rscale>  2 0.27440806E+02</rscale>
<asrwt>0</asrwt>
<pdfrwt beam="1">  1       21 0.93871416E-01 0.27440806E+02</pdfrwt>
<pdfrwt beam="2">  1       21 0.44155714E-03 0.27440806E+02</pdfrwt>
<totfact> 0.10953140E+07</totfact>
</mgrwt>
</event>
<event>
 4    1  0.7499963E+004  0.4221186E+02  0.7546771E-02  0.1492538E+00
         21   -1    0    0  501  502  0.00000000000E+00  0.00000000000E+00  0.34536656105E+02  0.34536656105E+02  0.00000000000E+00 0.  1.
         21   -1    0    0  502  503 -0.00000000000E+00 -0.00000000000E+00 -0.53423486116E+02  0.53423486116E+02  0.00000000000E+00 0.  1.
          3    1    1    2  501    0 -0.22372602777E+02  0.35795360643E+02 -0.17584873784E+02  0.45728207756E+02  0.00000000000E+00 0. -1.
         -3    1    1    2    0  503  0.22372602777E+02 -0.35795360643E+02 -0.13019562270E+01  0.42231934465E+02  0.00000000000E+00 0.  1.
<mgrwt>
<rscale>  2 0.42211861E+02</rscale>
<asrwt>0</asrwt>
<pdfrwt beam="1">  1       21 0.53133317E-02 0.42211861E+02</pdfrwt>
<pdfrwt beam="2">  1       21 0.82189979E-02 0.42211861E+02</pdfrwt>
<totfact> 0.23449285E+07</totfact>
</mgrwt>
</event>
<event>
 4    1  0.7499963E+004  0.2080470E+02  0.7546771E-02  0.1729783E+00
         21   -1    0    0  503  502  0.00000000000E+00  0.00000000000E+00  0.28196908106E+02  0.28196908106E+02  0.00000000000E+00 0.  1.
         21   -1    0    0  501  503 -0.00000000000E+00 -0.00000000000E+00 -0.15753017285E+02  0.15753017285E+02  0.00000000000E+00 0.  1.
          3    1    1    2  501    0  0.93462021255E+01  0.18587205466E+02  0.97347699568E+01  0.22969576560E+02  0.00000000000E+00 0.  1.
         -3    1    1    2    0  502 -0.93462021255E+01 -0.18587205466E+02  0.27091208645E+01  0.20980348831E+02  0.00000000000E+00 0. -1.
<mgrwt>
<rscale>  2 0.20804704E+02</rscale>
<asrwt>0</asrwt>
<pdfrwt beam="1">  1       21 0.43379859E-02 0.20804704E+02</pdfrwt>
<pdfrwt beam="2">  1       21 0.24235411E-02 0.20804704E+02</pdfrwt>
<totfact> 0.19363799E+08</totfact>
</mgrwt>
</event>
<event>
 4    1  0.7499963E+004  0.2468718E+02  0.7546771E-02  0.1665536E+00
         21   -1    0    0  503  502  0.00000000000E+00  0.00000000000E+00  0.20673828366E+01  0.20673828366E+01  0.00000000000E+00 0.  1.
         21   -1    0    0  501  503 -0.00000000000E+00 -0.00000000000E+00 -0.29633676334E+03  0.29633676334E+03  0.00000000000E+00 0.  1.
          1    1    1    2  501    0 -0.25799146312E+01  0.24552000940E+02 -0.13637710793E+03  0.13859355063E+03  0.00000000000E+00 0.  1.
         -1    1    1    2    0  502  0.25799146312E+01 -0.24552000940E+02 -0.15789227257E+03  0.15981059554E+03  0.00000000000E+00 0. -1.
<mgrwt>
<rscale>  2 0.24687177E+02</rscale>
<asrwt>0</asrwt>
<pdfrwt beam="1">  1       21 0.31805909E-03 0.24687177E+02</pdfrwt>
<pdfrwt beam="2">  1       21 0.45590244E-01 0.24687177E+02</pdfrwt>
<totfact> 0.75965806E+07</totfact>
</mgrwt>
</event>
<event>
 4    1  0.7499963E+004  0.2026766E+02  0.7546771E-02  0.1740057E+00
         21   -1    0    0  501  502  0.00000000000E+00  0.00000000000E+00  0.78907100452E+02  0.78907100452E+02  0.00000000000E+00 0.  1.
         21   -1    0    0  502  503 -0.00000000000E+00 -0.00000000000E+00 -0.52100666116E+01  0.52100666116E+01  0.00000000000E+00 0.  1.
          2    1    1    2  501    0  0.17280590550E+02 -0.10590528582E+02  0.35651249940E+02  0.41009629695E+02  0.00000000000E+00 0.  1.
         -2    1    1    2    0  503 -0.17280590550E+02  0.10590528582E+02  0.38045783900E+02  0.43107537369E+02  0.00000000000E+00 0. -1.
<mgrwt>
<rscale>  2 0.20267662E+02</rscale>
<asrwt>0</asrwt>
<pdfrwt beam="1">  1       21 0.12139553E-01 0.20267662E+02</pdfrwt>
<pdfrwt beam="2">  1       21 0.80154877E-03 0.20267662E+02</pdfrwt>
<totfact> 0.19352870E+08</totfact>
</mgrwt>
</event>
<event>
 4    1  0.7499963E+004  0.2159601E+02  0.7546771E-02  0.1715334E+00
         21   -1    0    0  503  502  0.00000000000E+00  0.00000000000E+00  0.58808794513E+01  0.58808794513E+01  0.00000000000E+00 0.  1.
         21   -1    0    0  501  503 -0.00000000000E+00 -0.00000000000E+00 -0.80842125917E+02  0.80842125917E+02  0.00000000000E+00 0.  1.
          5    1    1    2  501    0  0.16183962206E+02  0.14299191288E+02 -0.43458341474E+02  0.48528496246E+02  0.00000000000E+00 0.  1.
         -5    1    1    2    0  502 -0.16183962206E+02 -0.14299191288E+02 -0.31502904991E+02  0.38194509122E+02  0.00000000000E+00 0. -1.
<mgrwt>
<rscale>  2 0.21596007E+02</rscale>
<asrwt>0</asrwt>
<pdfrwt beam="1">  1       21 0.90475070E-03 0.21596007E+02</pdfrwt>
<pdfrwt beam="2">  1       21 0.12437250E-01 0.21596007E+02</pdfrwt>
<totfact> 0.15824112E+08</totfact>
</mgrwt>
</event>
<event>
 4    1  0.7499963E+004  0.2547434E+02  0.7546771E-02  0.1654281E+00
         21   -1    0    0  501  502  0.00000000000E+00  0.00000000000E+00  0.23881664710E+02  0.23881664710E+02  0.00000000000E+00 0. -1.
         21   -1    0    0  502  503 -0.00000000000E+00 -0.00000000000E+00 -0.29634746066E+02  0.29634746066E+02  0.00000000000E+00 0. -1.
          1    1    1    2  501    0 -0.14892797279E+01 -0.25430768799E+02  0.48352948732E+01  0.25929173383E+02  0.00000000000E+00 0.  1.
         -1    1    1    2    0  503  0.14892797279E+01  0.25430768799E+02 -0.10588376230E+02  0.27587237393E+02  0.00000000000E+00 0. -1.
<mgrwt>
<rscale>  2 0.25474339E+02</rscale>
<asrwt>0</asrwt>
<pdfrwt beam="1">  1       21 0.36741023E-02 0.25474339E+02</pdfrwt>
<pdfrwt beam="2">  1       21 0.45591917E-02 0.25474339E+02</pdfrwt>
<totfact> 0.99451110E+07</totfact>
</mgrwt>
</event>
<event>
 4    1  0.7499963E+004  0.2039014E+02  0.7546771E-02  0.1737679E+00
         21   -1    0    0  501  502  0.00000000000E+00  0.00000000000E+00  0.11457143018E+02  0.11457143018E+02  0.00000000000E+00 0.  1.
         21   -1    0    0  502  503 -0.00000000000E+00 -0.00000000000E+00 -0.51295964921E+02  0.51295964921E+02  0.00000000000E+00 0.  1.
          2    1    1    2  501    0 -0.10156869036E+02 -0.17680375548E+02 -0.29477848155E+01  0.20602114053E+02  0.00000000000E+00 0. -1.
         -2    1    1    2    0  503  0.10156869036E+02  0.17680375548E+02 -0.36891037088E+02  0.42150993885E+02  0.00000000000E+00 0.  1.
<mgrwt>
<rscale>  2 0.20390137E+02</rscale>
<asrwt>0</asrwt>
<pdfrwt beam="1">  1       21 0.17626374E-02 0.20390137E+02</pdfrwt>
<pdfrwt beam="2">  1       21 0.78916869E-02 0.20390137E+02</pdfrwt>
<totfact> 0.12040119E+08</totfact>
</mgrwt>
</event>
<event>
 4    1  0.7499963E+004  0.2660680E+02  0.7546771E-02  0.1638941E+00
         21   -1    0    0  501  502  0.00000000000E+00  0.00000000000E+00  0.96285110448E+01  0.96285110448E+01  0.00000000000E+00 0.  1.
         21   -1    0    0  502  503 -0.00000000000E+00 -0.00000000000E+00 -0.74873439879E+02  0.74873439879E+02  0.00000000000E+00 0.  1.
          1    1    1    2  501    0 -0.23931082212E+02  0.11628632611E+02 -0.26949230098E+02  0.37870605951E+02  0.00000000000E+00 0.  1.
         -1    1    1    2    0  503  0.23931082212E+02 -0.11628632611E+02 -0.38295698736E+02  0.46631344972E+02  0.00000000000E+00 0. -1.
<mgrwt>
<rscale>  2 0.26606800E+02</rscale>
<asrwt>0</asrwt>
<pdfrwt beam="1">  1       21 0.14813095E-02 0.26606800E+02</pdfrwt>
<pdfrwt beam="2">  1       21 0.11518990E-01 0.26606800E+02</pdfrwt>
<totfact> 0.90605931E+07</totfact>
</mgrwt>
</event>
<event>
 4    1  0.7499963E+004  0.2189664E+02  0.7546771E-02  0.1710046E+00
         21   -1    0    0  501  502  0.00000000000E+00  0.00000000000E+00  0.80747824074E+01  0.80747824074E+01  0.00000000000E+00 0.  1.
         21   -1    0    0  502  503 -0.00000000000E+00 -0.00000000000E+00 -0.73998249805E+02  0.73998249805E+02  0.00000000000E+00 0.  1.
          3    1    1    2  501    0  0.10652431984E+02  0.19130821854E+02 -0.51202388552E+02  0.55687945243E+02  0.00000000000E+00 0.  1.
         -3    1    1    2    0  503 -0.10652431984E+02 -0.19130821854E+02 -0.14721078846E+02  0.26385086969E+02  0.00000000000E+00 0. -1.
<mgrwt>
<rscale>  2 0.21896636E+02</rscale>
<asrwt>0</asrwt>
<pdfrwt beam="1">  1       21 0.12422742E-02 0.21896636E+02</pdfrwt>
<pdfrwt beam="2">  1       21 0.11384347E-01 0.21896636E+02</pdfrwt>
<totfact> 0.11442117E+08</totfact>
</mgrwt>
</event>
<event>
 4    1  0.7499963E+004  0.2321167E+02  0.7546771E-02  0.1688102E+00
         21   -1    0    0  501  502  0.00000000000E+00  0.00000000000E+00  0.78566113813E+02  0.78566113813E+02  0.00000000000E+00 0.  1.
         21   -1    0    0  502  503 -0.00000000000E+00 -0.00000000000E+00 -0.69360202775E+01  0.69360202775E+01  0.00000000000E+00 0.  1.
          3    1    1    2  501    0 -0.20481531576E+01  0.23121134662E+02  0.31271807975E+02  0.38944932577E+02  0.00000000000E+00 0.  1.
         -3    1    1    2    0  503  0.20481531576E+01 -0.23121134662E+02  0.40358285560E+02  0.46557201513E+02  0.00000000000E+00 0. -1.
<mgrwt>
<rscale>  2 0.23211674E+02</rscale>
<asrwt>0</asrwt>
<pdfrwt beam="1">  1       21 0.12087094E-01 0.23211674E+02</pdfrwt>
<pdfrwt beam="2">  1       21 0.10670801E-02 0.23211674E+02</pdfrwt>
<totfact> 0.13241600E+08</totfact>
</mgrwt>
</event>
<event>
 4    1  0.7499963E+004  0.2613778E+02  0.7546771E-02  0.1645178E+00
         21   -1    0    0  503  502  0.00000000000E+00  0.00000000000E+00  0.15429436794E+01  0.15429436794E+01  0.00000000000E+00 0.  1.
         21   -1    0    0  501  503 -0.00000000000E+00 -0.00000000000E+00 -0.45093600561E+03  0.45093600561E+03  0.00000000000E+00 0.  1.
          2    1    1    2  501    0 -0.25523260640E+02  0.56344173602E+01 -0.19426885155E+03  0.19601931072E+03  0.00000000000E+00 0. -1.
         -2    1    1    2    0  502  0.25523260640E+02 -0.56344173602E+01 -0.25512421038E+03  0.25645963857E+03  0.00000000000E+00 0.  1.
<mgrwt>
<rscale>  2 0.26137779E+02</rscale>
<asrwt>0</asrwt>
<pdfrwt beam="1">  1       21 0.23737591E-03 0.26137779E+02</pdfrwt>
<pdfrwt beam="2">  1       21 0.69374782E-01 0.26137779E+02</pdfrwt>
<totfact> 0.51167202E+07</totfact>
</mgrwt>
</event>
<event>
 4    1  0.7499963E+004  0.2128938E+02  0.7546771E-02  0.1720840E+00
         21   -1    0    0  501  502  0.00000000000E+00  0.00000000000E+00  0.11987761123E+02  0.11987761123E+02  0.00000000000E+00 0. -1.
         21   -1    0    0  502  503 -0.00000000000E+00 -0.00000000000E+00 -0.39916210444E+02  0.39916210444E+02  0.00000000000E+00 0. -1.
          4    1    1    2  501    0 -0.57368014369E+01 -0.20501872875E+02 -0.80005350472E+01  0.22743048238E+02  0.00000000000E+00 0.  1.
         -4    1    1    2    0  503  0.57368014369E+01  0.20501872875E+02 -0.19927914273E+02  0.29160923329E+02  0.00000000000E+00 0. -1.
<mgrwt>
<rscale>  2 0.21289380E+02</rscale>
<asrwt>0</asrwt>
<pdfrwt beam="1">  1       21 0.18442710E-02 0.21289380E+02</pdfrwt>
<pdfrwt beam="2">  1       21 0.61409554E-02 0.21289380E+02</pdfrwt>
<totfact> 0.17064496E+08</totfact>
</mgrwt>
</event>
<event>
 4    1  0.7499963E+004  0.3452761E+02  0.7546771E-02  0.1552836E+00
         21   -1    0    0  503  502  0.00000000000E+00  0.00000000000E+00  0.41120424704E+02  0.41120424704E+02  0.00000000000E+00 0. -1.
         21   -1    0    0  501  503 -0.00000000000E+00 -0.00000000000E+00 -0.45165565243E+02  0.45165565243E+02  0.00000000000E+00 0. -1.
          5    1    1    2  501    0 -0.14507141337E+02 -0.31332070305E+02  0.23794795086E+02  0.41932660929E+02  0.00000000000E+00 0. -1.
         -5    1    1    2    0  502  0.14507141337E+02  0.31332070305E+02 -0.27839935625E+02  0.44353329018E+02  0.00000000000E+00 0.  1.
<mgrwt>
<rscale>  2 0.34527609E+02</rscale>
<asrwt>0</asrwt>
<pdfrwt beam="1">  1       21 0.63262191E-02 0.34527609E+02</pdfrwt>
<pdfrwt beam="2">  1       21 0.69485485E-02 0.34527609E+02</pdfrwt>
<totfact> 0.22509909E+07</totfact>
</mgrwt>
</event>
<event>
 4    1  0.7499963E+004  0.2704698E+02  0.7546771E-02  0.1633229E+00
         21   -1    0    0  501  502  0.00000000000E+00  0.00000000000E+00  0.34647518565E+02  0.34647518565E+02  0.00000000000E+00 0.  1.
         21   -1    0    0  502  503 -0.00000000000E+00 -0.00000000000E+00 -0.36850829188E+02  0.36850829188E+02  0.00000000000E+00 0.  1.
          1    1    1    2  501    0 -0.86048167037E+01  0.25641693725E+02  0.22260038659E+02  0.35029254185E+02  0.00000000000E+00 0. -1.
         -1    1    1    2    0  503  0.86048167037E+01 -0.25641693725E+02 -0.24463349282E+02  0.36469093569E+02  0.00000000000E+00 0.  1.
<mgrwt>
<rscale>  2 0.27046984E+02</rscale>
<asrwt>0</asrwt>
<pdfrwt beam="1">  1       21 0.53303875E-02 0.27046984E+02</pdfrwt>
<pdfrwt beam="2">  1       21 0.56693583E-02 0.27046984E+02</pdfrwt>
<totfact> 0.39380904E+07</totfact>
</mgrwt>
</event>
<event>
 4    1  0.7499963E+004  0.2037411E+02  0.7546771E-02  0.1737989E+00
         21   -1    0    0  503  502  0.00000000000E+00  0.00000000000E+00  0.17924515950E+03  0.17924515950E+03  0.00000000000E+00 0. -1.
         21   -1    0    0  501  503 -0.00000000000E+00 -0.00000000000E+00 -0.28427061473E+01  0.28427061473E+01  0.00000000000E+00 0. -1.
          5    1    1    2  501    0 -0.97181647156E+01  0.17907025042E+02  0.49006061150E+02  0.53072575788E+02  0.00000000000E+00 0.  1.
         -5    1    1    2    0  502  0.97181647156E+01 -0.17907025042E+02  0.12739639220E+03  0.12901528986E+03  0.00000000000E+00 0. -1.
<mgrwt>
<rscale>  2 0.20374108E+02</rscale>
<asrwt>0</asrwt>
<pdfrwt beam="1">  1       21 0.27576170E-01 0.20374108E+02</pdfrwt>
<pdfrwt beam="2">  1       21 0.43733955E-03 0.20374108E+02</pdfrwt>
<totfact> 0.11510405E+08</totfact>
</mgrwt>
</event>
<event>
 4    1  0.7499963E+004  0.2779398E+02  0.7546771E-02  0.1623837E+00
         21   -1    0    0  501  502  0.00000000000E+00  0.00000000000E+00  0.18763488495E+01  0.18763488495E+01  0.00000000000E+00 0.  1.
         21   -1    0    0  502  503 -0.00000000000E+00 -0.00000000000E+00 -0.41608763835E+03  0.41608763835E+03  0.00000000000E+00 0.  1.
          5    1    1    2  501    0 -0.27425203710E+02 -0.45125960118E+01 -0.18566183606E+03  0.18773071856E+03  0.00000000000E+00 0. -1.
         -5    1    1    2    0  503  0.27425203710E+02  0.45125960118E+01 -0.22854945344E+03  0.23023326864E+03  0.00000000000E+00 0.  1.
<mgrwt>
<rscale>  2 0.27793980E+02</rscale>
<asrwt>0</asrwt>
<pdfrwt beam="1">  1       21 0.28866889E-03 0.27793980E+02</pdfrwt>
<pdfrwt beam="2">  1       21 0.64013519E-01 0.27793980E+02</pdfrwt>
<totfact> 0.45919407E+07</totfact>
</mgrwt>
</event>
<event>
 4    1  0.7499963E+004  0.2224433E+02  0.7546771E-02  0.1704060E+00
         21   -1    0    0  501  502  0.00000000000E+00  0.00000000000E+00  0.89368444815E+02  0.89368444815E+02  0.00000000000E+00 0. -1.
         21   -1    0    0  502  503 -0.00000000000E+00 -0.00000000000E+00 -0.56330480194E+01  0.56330480194E+01  0.00000000000E+00 0. -1.
          2    1    1    2  501    0  0.19635672898E+02  0.10452301346E+02  0.35656869317E+02  0.42026450993E+02  0.00000000000E+00 0. -1.
         -2    1    1    2    0  503 -0.19635672898E+02 -0.10452301346E+02  0.48078527479E+02  0.52975041841E+02  0.00000000000E+00 0.  1.
<mgrwt>
<rscale>  2 0.22244331E+02</rscale>
<asrwt>0</asrwt>
<pdfrwt beam="1">  1       21 0.13748990E-01 0.22244331E+02</pdfrwt>
<pdfrwt beam="2">  1       21 0.86662284E-03 0.22244331E+02</pdfrwt>
<totfact> 0.14384409E+08</totfact>
</mgrwt>
</event>
<event>
 4    1  0.7499963E+004  0.2109358E+02  0.7546771E-02  0.1724416E+00
         21   -1    0    0  501  502  0.00000000000E+00  0.00000000000E+00  0.81382526793E+00  0.81382526793E+00  0.00000000000E+00 0. -1.
         21   -1    0    0  502  503 -0.00000000000E+00 -0.00000000000E+00 -0.57517766379E+03  0.57517766379E+03  0.00000000000E+00 0. -1.
          5    1    1    2  501    0 -0.17501796906E+02 -0.11773971646E+02 -0.22312882430E+03  0.22412365233E+03  0.00000000000E+00 0.  1.
         -5    1    1    2    0  503  0.17501796906E+02  0.11773971646E+02 -0.35123501422E+03  0.35186783672E+03  0.00000000000E+00 0. -1.
<mgrwt>
<rscale>  2 0.21093584E+02</rscale>
<asrwt>0</asrwt>
<pdfrwt beam="1">  1       21 0.12520390E-03 0.21093584E+02</pdfrwt>
<pdfrwt beam="2">  1       21 0.88488866E-01 0.21093584E+02</pdfrwt>
<totfact> 0.73573622E+07</totfact>
</mgrwt>
</event>
<event>
 4    1  0.7499963E+004  0.2388555E+02  0.7546771E-02  0.1677545E+00
         21   -1    0    0  503  502  0.00000000000E+00  0.00000000000E+00  0.52749423202E+01  0.52749423202E+01  0.00000000000E+00 0.  1.
         21   -1    0    0  501  503 -0.00000000000E+00 -0.00000000000E+00 -0.13127520863E+03  0.13127520863E+03  0.00000000000E+00 0.  1.
          1    1    1    2  501    0 -0.10857158211E+02 -0.21275376273E+02 -0.34348312585E+02  0.41836898755E+02  0.00000000000E+00 0. -1.
         -1    1    1    2    0  502  0.10857158211E+02  0.21275376273E+02 -0.91651953726E+02  0.94713252197E+02  0.00000000000E+00 0.  1.
<mgrwt>
<rscale>  2 0.23885550E+02</rscale>
<asrwt>0</asrwt>
<pdfrwt beam="1">  1       21 0.81152963E-03 0.23885550E+02</pdfrwt>
<pdfrwt beam="2">  1       21 0.20196185E-01 0.23885550E+02</pdfrwt>
<totfact> 0.83633465E+07</totfact>
</mgrwt>
</event>
<event>
 4    1  0.7499963E+004  0.2653570E+02  0.7546771E-02  0.1639876E+00
         21   -1    0    0  503  502  0.00000000000E+00  0.00000000000E+00  0.24296702800E+01  0.24296702800E+01  0.00000000000E+00 0. -1.
         21   -1    0    0  501  503 -0.00000000000E+00 -0.00000000000E+00 -0.34126696868E+03  0.34126696868E+03  0.00000000000E+00 0. -1.
          4    1    1    2  501    0 -0.11869564235E+02 -0.23733033260E+02 -0.23614833531E+03  0.23763455071E+03  0.00000000000E+00 0. -1.
         -4    1    1    2    0  502  0.11869564235E+02  0.23733033260E+02 -0.10268896309E+03  0.10606208825E+03  0.00000000000E+00 0.  1.
<mgrwt>
<rscale>  2 0.26535701E+02</rscale>
<asrwt>0</asrwt>
<pdfrwt beam="1">  1       21 0.37379514E-03 0.26535701E+02</pdfrwt>
<pdfrwt beam="2">  1       21 0.52502650E-01 0.26535701E+02</pdfrwt>
<totfact> 0.46284124E+07</totfact>
</mgrwt>
</event>
<event>
 4    1  0.7499963E+004  0.2066211E+02  0.7546771E-02  0.1732473E+00
         21   -1    0    0  503  502  0.00000000000E+00  0.00000000000E+00  0.42528411972E+01  0.42528411972E+01  0.00000000000E+00 0.  1.
         21   -1    0    0  501  503 -0.00000000000E+00 -0.00000000000E+00 -0.12287236714E+03  0.12287236714E+03  0.00000000000E+00 0.  1.
          5    1    1    2  501    0 -0.17942549981E+02 -0.10246356878E+02 -0.86501725126E+02  0.88935208882E+02  0.00000000000E+00 0. -1.
         -5    1    1    2    0  502  0.17942549981E+02  0.10246356878E+02 -0.32117800818E+02  0.38189999456E+02  0.00000000000E+00 0.  1.
<mgrwt>
<rscale>  2 0.20662113E+02</rscale>
<asrwt>0</asrwt>
<pdfrwt beam="1">  1       21 0.65428331E-03 0.20662113E+02</pdfrwt>
<pdfrwt beam="2">  1       21 0.18903440E-01 0.20662113E+02</pdfrwt>
<totfact> 0.12411512E+08</totfact>
</mgrwt>
</event>
<event>
 4    1  0.7499963E+004  0.2533194E+02  0.7546771E-02  0.1656279E+00
         21   -1    0    0  501  502  0.00000000000E+00  0.00000000000E+00  0.52673825042E+00  0.52673825042E+00  0.00000000000E+00 0.  1.
         21   -1    0    0  502  503 -0.00000000000E+00 -0.00000000000E+00 -0.17630373503E+04  0.17630373503E+04  0.00000000000E+00 0.  1.
          1    1    1    2  501    0  0.23759241870E+02  0.87866837168E+01 -0.39109565152E+03  0.39191518984E+03  0.00000000000E+00 0. -1.
         -1    1    1    2    0  503 -0.23759241870E+02 -0.87866837168E+01 -0.13714149605E+04  0.13716488987E+04  0.00000000000E+00 0.  1.
<mgrwt>
<rscale>  2 0.25331944E+02</rscale>
<asrwt>0</asrwt>
<pdfrwt beam="1">  1       21 0.81035397E-04 0.25331944E+02</pdfrwt>
<pdfrwt beam="2">  1       21 0.27124072E+00 0.25331944E+02</pdfrwt>
<totfact> 0.90701577E+06</totfact>
</mgrwt>
</event>
<event>
 4    1  0.7499963E+004  0.2122632E+02  0.7546771E-02  0.1721986E+00
         21   -1    0    0  501  502  0.00000000000E+00  0.00000000000E+00  0.19091770071E+01  0.19091770071E+01  0.00000000000E+00 0. -1.
         21   -1    0    0  502  503 -0.00000000000E+00 -0.00000000000E+00 -0.34965104067E+03  0.34965104067E+03  0.00000000000E+00 0. -1.
          1    1    1    2  501    0 -0.12018981234E+02 -0.17495737029E+02 -0.27408947406E+03  0.27491016081E+03  0.00000000000E+00 0.  1.
         -1    1    1    2    0  503  0.12018981234E+02  0.17495737029E+02 -0.73652389605E+02  0.76650056873E+02  0.00000000000E+00 0. -1.
<mgrwt>
<rscale>  2 0.21226321E+02</rscale>
<asrwt>0</asrwt>
<pdfrwt beam="1">  1       21 0.29371986E-03 0.21226321E+02</pdfrwt>
<pdfrwt beam="2">  1       21 0.53792410E-01 0.21226321E+02</pdfrwt>
<totfact> 0.59625894E+07</totfact>
</mgrwt>
</event>
<event>
 4    1  0.7499963E+004  0.2114754E+02  0.7546771E-02  0.1723426E+00
         21   -1    0    0  503  502  0.00000000000E+00  0.00000000000E+00  0.10375428698E+01  0.10375428698E+01  0.00000000000E+00 0.  1.
         21   -1    0    0  501  503 -0.00000000000E+00 -0.00000000000E+00 -0.43904010242E+03  0.43904010242E+03  0.00000000000E+00 0.  1.
          5    1    1    2  501    0  0.19673372625E+02  0.77573842274E+01 -0.18929170598E+03  0.19046933757E+03  0.00000000000E+00 0.  1.
         -5    1    1    2    0  502 -0.19673372625E+02 -0.77573842274E+01 -0.24871085357E+03  0.24960830772E+03  0.00000000000E+00 0. -1.
<mgrwt>
<rscale>  2 0.21147544E+02</rscale>
<asrwt>0</asrwt>
<pdfrwt beam="1">  1       21 0.15962247E-03 0.21147544E+02</pdfrwt>
<pdfrwt beam="2">  1       21 0.67544423E-01 0.21147544E+02</pdfrwt>
<totfact> 0.91190748E+07</totfact>
</mgrwt>
</event>
<event>
 4    1  0.7499963E+004  0.2587271E+02  0.7546771E-02  0.1648774E+00
         21   -1    0    0  503  502  0.00000000000E+00  0.00000000000E+00  0.11938487579E+02  0.11938487579E+02  0.00000000000E+00 0.  1.
         21   -1    0    0  501  503 -0.00000000000E+00 -0.00000000000E+00 -0.57301116561E+02  0.57301116561E+02  0.00000000000E+00 0.  1.
          2    1    1    2  501    0 -0.21141877052E+02  0.14913696326E+02 -0.17607910394E+02  0.31295939223E+02  0.00000000000E+00 0. -1.
         -2    1    1    2    0  502  0.21141877052E+02 -0.14913696326E+02 -0.27754718588E+02  0.37943664916E+02  0.00000000000E+00 0.  1.
<mgrwt>
<rscale>  2 0.25872713E+02</rscale>
<asrwt>0</asrwt>
<pdfrwt beam="1">  1       21 0.18366904E-02 0.25872713E+02</pdfrwt>
<pdfrwt beam="2">  1       21 0.88155564E-02 0.25872713E+02</pdfrwt>
<totfact> 0.10098376E+08</totfact>
</mgrwt>
</event>
<event>
 4    1  0.7499963E+004  0.2499984E+02  0.7546771E-02  0.1661004E+00
         21   -1    0    0  501  502  0.00000000000E+00  0.00000000000E+00  0.10187890987E+04  0.10187890987E+04  0.00000000000E+00 0.  1.
         21   -1    0    0  502  503 -0.00000000000E+00 -0.00000000000E+00 -0.61399664520E+00  0.61399664520E+00  0.00000000000E+00 0.  1.
          3    1    1    2  501    0 -0.16879844012E+02 -0.18440791083E+02  0.49409549003E+03  0.49472754641E+03  0.00000000000E+00 0.  1.
         -3    1    1    2    0  503  0.16879844012E+02  0.18440791083E+02  0.52407961207E+03  0.52467554898E+03  0.00000000000E+00 0. -1.
<mgrwt>
<rscale>  2 0.24999838E+02</rscale>
<asrwt>0</asrwt>
<pdfrwt beam="1">  1       21 0.15673543E+00 0.24999838E+02</pdfrwt>
<pdfrwt beam="2">  1       21 0.94461838E-04 0.24999838E+02</pdfrwt>
<totfact> 0.31309872E+07</totfact>
</mgrwt>
</event>
<event>
 4    1  0.7499963E+004  0.3014914E+02  0.7546771E-02  0.1596446E+00
         21   -1    0    0  501  502  0.00000000000E+00  0.00000000000E+00  0.17059822479E+03  0.17059822479E+03  0.00000000000E+00 0.  1.
         21   -1    0    0  502  503 -0.00000000000E+00 -0.00000000000E+00 -0.58892300331E+01  0.58892300331E+01  0.00000000000E+00 0.  1.
          1    1    1    2  501    0  0.29754199373E+02  0.48639789785E+01  0.55116691632E+02  0.62823724566E+02  0.00000000000E+00 0. -1.
         -1    1    1    2    0  503 -0.29754199373E+02 -0.48639789785E+01  0.10959230312E+03  0.11366373025E+03  0.00000000000E+00 0.  1.
<mgrwt>
<rscale>  2 0.30149140E+02</rscale>
<asrwt>0</asrwt>
<pdfrwt beam="1">  1       21 0.26245877E-01 0.30149140E+02</pdfrwt>
<pdfrwt beam="2">  1       21 0.90603552E-03 0.30149140E+02</pdfrwt>
<totfact> 0.46952725E+07</totfact>
</mgrwt>
</event>
<event>
 4    1  0.7499963E+004  0.2510966E+02  0.7546771E-02  0.1659432E+00
         21   -1    0    0  501  502  0.00000000000E+00  0.00000000000E+00  0.23198559698E+03  0.23198559698E+03  0.00000000000E+00 0.  1.
         21   -1    0    0  502  503 -0.00000000000E+00 -0.00000000000E+00 -0.27219767845E+01  0.27219767845E+01  0.00000000000E+00 0.  1.
          5    1    1    2  501    0 -0.19532254807E+02  0.15779294417E+02  0.11921777036E+03  0.12183337753E+03  0.00000000000E+00 0. -1.
         -5    1    1    2    0  503  0.19532254807E+02 -0.15779294417E+02  0.11004584983E+03  0.11287419624E+03  0.00000000000E+00 0.  1.
<mgrwt>
<rscale>  2 0.25109662E+02</rscale>
<asrwt>0</asrwt>
<pdfrwt beam="1">  1       21 0.35690076E-01 0.25109662E+02</pdfrwt>
<pdfrwt beam="2">  1       21 0.41876584E-03 0.25109662E+02</pdfrwt>
<totfact> 0.80974029E+07</totfact>
</mgrwt>
</event>
<event>
 4    1  0.7499963E+004  0.4874460E+02  0.7546771E-02  0.1452233E+00
         21   -1    0    0  501  502  0.00000000000E+00  0.00000000000E+00  0.29766940854E+02  0.29766940854E+02  0.00000000000E+00 0. -1.
         21   -1    0    0  502  503 -0.00000000000E+00 -0.00000000000E+00 -0.80049831365E+02  0.80049831365E+02  0.00000000000E+00 0. -1.
          3    1    1    2  501    0  0.47872029693E+02  0.91817878508E+01 -0.22207755615E+02  0.53565108649E+02  0.00000000000E+00 0. -1.
         -3    1    1    2    0  503 -0.47872029693E+02 -0.91817878508E+01 -0.28075134896E+02  0.56251663571E+02  0.00000000000E+00 0.  1.
<mgrwt>
<rscale>  2 0.48744604E+02</rscale>
<asrwt>0</asrwt>
<pdfrwt beam="1">  1       21 0.45795295E-02 0.48744604E+02</pdfrwt>
<pdfrwt beam="2">  1       21 0.12315358E-01 0.48744604E+02</pdfrwt>
<totfact> 0.15358390E+07</totfact>
</mgrwt>
</event>
<event>
 4    1  0.7499963E+004  0.3544224E+02  0.7546771E-02  0.1544708E+00
         21   -1    0    0  503  502  0.00000000000E+00  0.00000000000E+00  0.43617131161E+01  0.43617131161E+01  0.00000000000E+00 0.  1.
         21   -1    0    0  501  503 -0.00000000000E+00 -0.00000000000E+00 -0.28813623127E+03  0.28813623127E+03  0.00000000000E+00 0.  1.
          1    1    1    2  501    0  0.34805177139E+02 -0.66896705306E+01 -0.14512387034E+03  0.14938905512E+03  0.00000000000E+00 0. -1.
         -1    1    1    2    0  502 -0.34805177139E+02  0.66896705306E+01 -0.13865064781E+03  0.14310888926E+03  0.00000000000E+00 0.  1.
<mgrwt>
<rscale>  2 0.35442235E+02</rscale>
<asrwt>0</asrwt>
<pdfrwt beam="1">  1       21 0.67103261E-03 0.35442235E+02</pdfrwt>
<pdfrwt beam="2">  1       21 0.44328662E-01 0.35442235E+02</pdfrwt>
<totfact> 0.28506604E+07</totfact>
</mgrwt>
</event>
<event>
 4    1  0.7499963E+004  0.2521558E+02  0.7546771E-02  0.1657925E+00
         21   -1    0    0  503  502  0.00000000000E+00  0.00000000000E+00  0.28186483905E+01  0.28186483905E+01  0.00000000000E+00 0.  1.
         21   -1    0    0  501  503 -0.00000000000E+00 -0.00000000000E+00 -0.26405067532E+03  0.26405067532E+03  0.00000000000E+00 0.  1.
          4    1    1    2  501    0  0.21217876289E+02 -0.13624506854E+02 -0.79682876912E+02  0.83577427181E+02  0.00000000000E+00 0.  1.
         -4    1    1    2    0  502 -0.21217876289E+02  0.13624506854E+02 -0.18154915002E+03  0.18329189653E+03  0.00000000000E+00 0. -1.
<mgrwt>
<rscale>  2 0.25215580E+02</rscale>
<asrwt>0</asrwt>
<pdfrwt beam="1">  1       21 0.43363829E-03 0.25215580E+02</pdfrwt>
<pdfrwt beam="2">  1       21 0.40623173E-01 0.25215580E+02</pdfrwt>
<totfact> 0.60363679E+07</totfact>
</mgrwt>
</event>
<event>
 4    1  0.7499963E+004  0.2339039E+02  0.7546771E-02  0.1685259E+00
         21   -1    0    0  501  502  0.00000000000E+00  0.00000000000E+00  0.18252780482E+03  0.18252780482E+03  0.00000000000E+00 0.  1.
         21   -1    0    0  502  503 -0.00000000000E+00 -0.00000000000E+00 -0.32174728789E+01  0.32174728789E+01  0.00000000000E+00 0.  1.
          1    1    1    2  501    0 -0.47351069294E+01  0.22906096801E+02  0.65366447910E+02  0.69425377354E+02  0.00000000000E+00 0.  1.
         -1    1    1    2    0  503  0.47351069294E+01 -0.22906096801E+02  0.11394388403E+03  0.11631990035E+03  0.00000000000E+00 0. -1.
<mgrwt>
<rscale>  2 0.23390394E+02</rscale>
<asrwt>0</asrwt>
<pdfrwt beam="1">  1       21 0.28081193E-01 0.23390394E+02</pdfrwt>
<pdfrwt beam="2">  1       21 0.49499597E-03 0.23390394E+02</pdfrwt>
<totfact> 0.96485169E+07</totfact>
</mgrwt>
</event>
<event>
 4    1  0.7499963E+004  0.4517584E+02  0.7546771E-02  0.1473247E+00
         21   -1    0    0  503  502  0.00000000000E+00  0.00000000000E+00  0.23389644141E+02  0.23389644141E+02  0.00000000000E+00 0.  1.
         21   -1    0    0  501  503 -0.00000000000E+00 -0.00000000000E+00 -0.87272192286E+02  0.87272192286E+02  0.00000000000E+00 0.  1.
          3    1    1    2  501    0  0.81895454614E+01 -0.44427330931E+02 -0.32724613725E+02  0.55783122286E+02  0.00000000000E+00 0.  1.
         -3    1    1    2    0  502 -0.81895454614E+01  0.44427330931E+02 -0.31157934419E+02  0.54878714141E+02  0.00000000000E+00 0. -1.
<mgrwt>
<rscale>  2 0.45175839E+02</rscale>
<asrwt>0</asrwt>
<pdfrwt beam="1">  1       21 0.35984067E-02 0.45175839E+02</pdfrwt>
<pdfrwt beam="2">  1       21 0.13426491E-01 0.45175839E+02</pdfrwt>
<totfact> 0.19326285E+07</totfact>
</mgrwt>
</event>
<event>
 4    1  0.7499963E+004  0.3347786E+02  0.7546771E-02  0.1562548E+00
         21   -1    0    0  501  502  0.00000000000E+00  0.00000000000E+00  0.98490949728E+02  0.98490949728E+02  0.00000000000E+00 0.  1.
         21   -1    0    0  502  503 -0.00000000000E+00 -0.00000000000E+00 -0.11380372939E+02  0.11380372939E+02  0.00000000000E+00 0.  1.
          1    1    1    2  501    0  0.33404470942E+02  0.22155641152E+01  0.44064586132E+02  0.55339453866E+02  0.00000000000E+00 0.  1.
         -1    1    1    2    0  503 -0.33404470942E+02 -0.22155641152E+01  0.43045990657E+02  0.54531868800E+02  0.00000000000E+00 0. -1.
<mgrwt>
<rscale>  2 0.33477864E+02</rscale>
<asrwt>0</asrwt>
<pdfrwt beam="1">  1       21 0.15152453E-01 0.33477864E+02</pdfrwt>
<pdfrwt beam="2">  1       21 0.17508267E-02 0.33477864E+02</pdfrwt>
<totfact> 0.46290490E+07</totfact>
</mgrwt>
</event>
<event>
 4    1  0.7499963E+004  0.3608844E+02  0.7546771E-02  0.1539142E+00
         21   -1    0    0  503  502  0.00000000000E+00  0.00000000000E+00  0.16196126090E+02  0.16196126090E+02  0.00000000000E+00 0. -1.
         21   -1    0    0  501  503 -0.00000000000E+00 -0.00000000000E+00 -0.89884073259E+02  0.89884073259E+02  0.00000000000E+00 0. -1.
          4    1    1    2  501    0 -0.35063776729E+02 -0.85385809747E+01 -0.19626588010E+02  0.41080150444E+02  0.00000000000E+00 0.  1.
         -4    1    1    2    0  502  0.35063776729E+02  0.85385809747E+01 -0.54061359159E+02  0.65000048905E+02  0.00000000000E+00 0. -1.
<mgrwt>
<rscale>  2 0.36088444E+02</rscale>
<asrwt>0</asrwt>
<pdfrwt beam="1">  1       21 0.24917118E-02 0.36088444E+02</pdfrwt>
<pdfrwt beam="2">  1       21 0.13828319E-01 0.36088444E+02</pdfrwt>
<totfact> 0.31731397E+07</totfact>
</mgrwt>
</event>
<event>
 4    1  0.7499963E+004  0.2415227E+02  0.7546771E-02  0.1673485E+00
         21   -1    0    0  503  502  0.00000000000E+00  0.00000000000E+00  0.10407601449E+01  0.10407601449E+01  0.00000000000E+00 0.  1.
         21   -1    0    0  501  503 -0.00000000000E+00 -0.00000000000E+00 -0.67805209584E+03  0.67805209584E+03  0.00000000000E+00 0.  1.
          4    1    1    2  501    0  0.10697455906E+02  0.21654015950E+02 -0.19711920398E+03  0.19859333460E+03  0.00000000000E+00 0. -1.
         -4    1    1    2    0  502 -0.10697455906E+02 -0.21654015950E+02 -0.47989213172E+03  0.48049952139E+03  0.00000000000E+00 0.  1.
<mgrwt>
<rscale>  2 0.24152266E+02</rscale>
<asrwt>0</asrwt>
<pdfrwt beam="1">  1       21 0.16011737E-03 0.24152266E+02</pdfrwt>
<pdfrwt beam="2">  1       21 0.10431543E+00 0.24152266E+02</pdfrwt>
<totfact> 0.37315943E+07</totfact>
</mgrwt>
</event>
<event>
 4    1  0.7499963E+004  0.2253536E+02  0.7546771E-02  0.1699154E+00
         21   -1    0    0  501  502  0.00000000000E+00  0.00000000000E+00  0.14427620576E+01  0.14427620576E+01  0.00000000000E+00 0. -1.
         21   -1    0    0  502  503 -0.00000000000E+00 -0.00000000000E+00 -0.39014877458E+03  0.39014877458E+03  0.00000000000E+00 0. -1.
          4    1    1    2  501    0  0.19707340572E+02  0.10929921449E+02 -0.13312260710E+03  0.13501655816E+03  0.00000000000E+00 0.  1.
         -4    1    1    2    0  503 -0.19707340572E+02 -0.10929921449E+02 -0.25558340543E+03  0.25657497849E+03  0.00000000000E+00 0. -1.
<mgrwt>
<rscale>  2 0.22535360E+02</rscale>
<asrwt>0</asrwt>
<pdfrwt beam="1">  1       21 0.22196329E-03 0.22535360E+02</pdfrwt>
<pdfrwt beam="2">  1       21 0.60022915E-01 0.22535360E+02</pdfrwt>
<totfact> 0.73124365E+07</totfact>
</mgrwt>
</event>
<event>
 4    1  0.7499963E+004  0.2262197E+02  0.7546771E-02  0.1697712E+00
         21   -1    0    0  503  502  0.00000000000E+00  0.00000000000E+00  0.57078234502E+00  0.57078234502E+00  0.00000000000E+00 0. -1.
         21   -1    0    0  501  503 -0.00000000000E+00 -0.00000000000E+00 -0.92135371448E+03  0.92135371448E+03  0.00000000000E+00 0. -1.
          1    1    1    2  501    0 -0.19333388153E+02 -0.11746223840E+02 -0.53597419824E+03  0.53645139095E+03  0.00000000000E+00 0.  1.
         -1    1    1    2    0  502  0.19333388153E+02  0.11746223840E+02 -0.38480873390E+03  0.38547310588E+03  0.00000000000E+00 0. -1.
<mgrwt>
<rscale>  2 0.22621973E+02</rscale>
<asrwt>0</asrwt>
<pdfrwt beam="1">  1       21 0.87812475E-04 0.22621973E+02</pdfrwt>
<pdfrwt beam="2">  1       21 0.14174704E+00 0.22621973E+02</pdfrwt>
<totfact> 0.43283399E+07</totfact>
</mgrwt>
</event>
<event>
 4    1  0.7499963E+004  0.2017825E+02  0.7546771E-02  0.1741806E+00
         21   -1    0    0  503  502  0.00000000000E+00  0.00000000000E+00  0.12613641751E+02  0.12613641751E+02  0.00000000000E+00 0.  1.
         21   -1    0    0  501  503 -0.00000000000E+00 -0.00000000000E+00 -0.32279602627E+02  0.32279602627E+02  0.00000000000E+00 0.  1.
          3    1    1    2  501    0  0.17789611530E+02  0.95232013824E+01 -0.98788527303E+01  0.22466717032E+02  0.00000000000E+00 0. -1.
         -3    1    1    2    0  502 -0.17789611530E+02 -0.95232013824E+01 -0.97871081458E+01  0.22426527346E+02  0.00000000000E+00 0.  1.
<mgrwt>
<rscale>  2 0.20178247E+02</rscale>
<asrwt>0</asrwt>
<pdfrwt beam="1">  1       21 0.19405603E-02 0.20178247E+02</pdfrwt>
<pdfrwt beam="2">  1       21 0.49660926E-02 0.20178247E+02</pdfrwt>
<totfact> 0.21766968E+08</totfact>
</mgrwt>
</event>
<event>
 4    1  0.7499963E+004  0.2041500E+02  0.7546771E-02  0.1737199E+00
         21   -1    0    0  503  502  0.00000000000E+00  0.00000000000E+00  0.34682183407E+00  0.34682183407E+00  0.00000000000E+00 0.  1.
         21   -1    0    0  501  503 -0.00000000000E+00 -0.00000000000E+00 -0.12792901725E+04  0.12792901725E+04  0.00000000000E+00 0.  1.
          4    1    1    2  501    0 -0.18164384421E+02  0.93181170768E+01 -0.48189028994E+03  0.48232253079E+03  0.00000000000E+00 0.  1.
         -4    1    1    2    0  502  0.18164384421E+02 -0.93181170768E+01 -0.79705306068E+03  0.79731446350E+03  0.00000000000E+00 0. -1.
<mgrwt>
<rscale>  2 0.20414999E+02</rscale>
<asrwt>0</asrwt>
<pdfrwt beam="1">  1       21 0.53357477E-04 0.20414999E+02</pdfrwt>
<pdfrwt beam="2">  1       21 0.19681287E+00 0.20414999E+02</pdfrwt>
<totfact> 0.38632323E+07</totfact>
</mgrwt>
</event>
<event>
 4    1  0.7499963E+004  0.2617878E+02  0.7546771E-02  0.1644626E+00
         21   -1    0    0  503  502  0.00000000000E+00  0.00000000000E+00  0.42937070635E+01  0.42937070635E+01  0.00000000000E+00 0. -1.
         21   -1    0    0  501  503 -0.00000000000E+00 -0.00000000000E+00 -0.16340449237E+03  0.16340449237E+03  0.00000000000E+00 0. -1.
          4    1    1    2  501    0  0.25029681815E+02 -0.76709640106E+01 -0.66781922086E+02  0.71729727297E+02  0.00000000000E+00 0.  1.
         -4    1    1    2    0  502 -0.25029681815E+02  0.76709640106E+01 -0.92328863215E+02  0.95968472131E+02  0.00000000000E+00 0. -1.
<mgrwt>
<rscale>  2 0.26178783E+02</rscale>
<asrwt>0</asrwt>
<pdfrwt beam="1">  1       21 0.66057022E-03 0.26178783E+02</pdfrwt>
<pdfrwt beam="2">  1       21 0.25139156E-01 0.26178783E+02</pdfrwt>
<totfact> 0.78974700E+07</totfact>
</mgrwt>
</event>
<event>
 4    1  0.7499963E+004  0.3155733E+02  0.7546771E-02  0.1581486E+00
         21   -1    0    0  501  502  0.00000000000E+00  0.00000000000E+00  0.49877997531E+02  0.49877997531E+02  0.00000000000E+00 0.  1.
         21   -1    0    0  502  503 -0.00000000000E+00 -0.00000000000E+00 -0.19995679043E+02  0.19995679043E+02  0.00000000000E+00 0.  1.
          2    1    1    2  501    0  0.22339201953E+02  0.22289569888E+02  0.16286794453E+02  0.35512315374E+02  0.00000000000E+00 0.  1.
         -2    1    1    2    0  503 -0.22339201953E+02 -0.22289569888E+02  0.13595524035E+02  0.34361361199E+02  0.00000000000E+00 0. -1.
<mgrwt>
<rscale>  2 0.31557327E+02</rscale>
<asrwt>0</asrwt>
<pdfrwt beam="1">  1       21 0.76735381E-02 0.31557327E+02</pdfrwt>
<pdfrwt beam="2">  1       21 0.30762583E-02 0.31557327E+02</pdfrwt>
<totfact> 0.59708933E+07</totfact>
</mgrwt>
</event>
<event>
 4    1  0.7499963E+004  0.2810049E+02  0.7546771E-02  0.1620087E+00
         21   -1    0    0  503  502  0.00000000000E+00  0.00000000000E+00  0.61218754690E+01  0.61218754690E+01  0.00000000000E+00 0. -1.
         21   -1    0    0  501  503 -0.00000000000E+00 -0.00000000000E+00 -0.12903919127E+03  0.12903919127E+03  0.00000000000E+00 0. -1.
          4    1    1    2  501    0 -0.27495882689E+02  0.57977395793E+01 -0.62828381493E+02  0.68826178668E+02  0.00000000000E+00 0. -1.
         -4    1    1    2    0  502  0.27495882689E+02 -0.57977395793E+01 -0.60088934308E+02  0.66334888070E+02  0.00000000000E+00 0.  1.
<mgrwt>
<rscale>  2 0.28100487E+02</rscale>
<asrwt>0</asrwt>
<pdfrwt beam="1">  1       21 0.94182720E-03 0.28100487E+02</pdfrwt>
<pdfrwt beam="2">  1       21 0.19852179E-01 0.28100487E+02</pdfrwt>
<totfact> 0.71743940E+07</totfact>
</mgrwt>
</event>
<event>
 4    1  0.7499963E+004  0.2709261E+02  0.7546771E-02  0.1632645E+00
         21   -1    0    0  501  502  0.00000000000E+00  0.00000000000E+00  0.13919794196E+02  0.13919794196E+02  0.00000000000E+00 0. -1.
         21   -1    0    0  502  503 -0.00000000000E+00 -0.00000000000E+00 -0.84500315400E+02  0.84500315400E+02  0.00000000000E+00 0. -1.
          3    1    1    2  501    0 -0.13673884466E+02  0.23388769174E+02 -0.51167271949E+01  0.27571553040E+02  0.00000000000E+00 0. -1.
         -3    1    1    2    0  503  0.13673884466E+02 -0.23388769174E+02 -0.65463794009E+02  0.70848556555E+02  0.00000000000E+00 0.  1.
<mgrwt>
<rscale>  2 0.27092612E+02</rscale>
<asrwt>0</asrwt>
<pdfrwt beam="1">  1       21 0.21415068E-02 0.27092612E+02</pdfrwt>
<pdfrwt beam="2">  1       21 0.13000049E-01 0.27092612E+02</pdfrwt>
<totfact> 0.42108269E+07</totfact>
</mgrwt>
</event>
<event>
 4    1  0.7499963E+004  0.2315394E+02  0.7546771E-02  0.1689027E+00
         21   -1    0    0  501  502  0.00000000000E+00  0.00000000000E+00  0.88807502679E+00  0.88807502679E+00  0.00000000000E+00 0.  1.
         21   -1    0    0  502  503 -0.00000000000E+00 -0.00000000000E+00 -0.69393451242E+03  0.69393451242E+03  0.00000000000E+00 0.  1.
          4    1    1    2  501    0  0.19161484153E+02 -0.12997785249E+02 -0.22122599097E+03  0.22243435881E+03  0.00000000000E+00 0.  1.
         -4    1    1    2    0  503 -0.19161484153E+02  0.12997785249E+02 -0.47182044642E+03  0.47238822864E+03  0.00000000000E+00 0. -1.
<mgrwt>
<rscale>  2 0.23153939E+02</rscale>
<asrwt>0</asrwt>
<pdfrwt beam="1">  1       21 0.13662631E-03 0.23153939E+02</pdfrwt>
<pdfrwt beam="2">  1       21 0.10675964E+00 0.23153939E+02</pdfrwt>
<totfact> 0.44132989E+07</totfact>
</mgrwt>
</event>
<event>
 4    1  0.7499963E+004  0.2324818E+02  0.7546771E-02  0.1687519E+00
         21   -1    0    0  501  502  0.00000000000E+00  0.00000000000E+00  0.81501539859E+01  0.81501539859E+01  0.00000000000E+00 0. -1.
         21   -1    0    0  502  503 -0.00000000000E+00 -0.00000000000E+00 -0.69990303514E+02  0.69990303514E+02  0.00000000000E+00 0. -1.
          2    1    1    2  501    0  0.50692825949E+01  0.22688764097E+02 -0.39873151575E+02  0.46155669844E+02  0.00000000000E+00 0. -1.
         -2    1    1    2    0  503 -0.50692825949E+01 -0.22688764097E+02 -0.21966997953E+02  0.31984787655E+02  0.00000000000E+00 0.  1.
<mgrwt>
<rscale>  2 0.23248175E+02</rscale>
<asrwt>0</asrwt>
<pdfrwt beam="1">  1       21 0.12538699E-02 0.23248175E+02</pdfrwt>
<pdfrwt beam="2">  1       21 0.10767739E-01 0.23248175E+02</pdfrwt>
<totfact> 0.12596187E+08</totfact>
</mgrwt>
</event>
<event>
 4    1  0.7499963E+004  0.2268318E+02  0.7546771E-02  0.1696698E+00
         21   -1    0    0  501  502  0.00000000000E+00  0.00000000000E+00  0.86779751288E+00  0.86779751288E+00  0.00000000000E+00 0. -1.
         21   -1    0    0  502  503 -0.00000000000E+00 -0.00000000000E+00 -0.59291197086E+03  0.59291197086E+03  0.00000000000E+00 0. -1.
          3    1    1    2  501    0  0.22595939902E+02  0.19875491183E+01 -0.29568025005E+03  0.29654904674E+03  0.00000000000E+00 0.  1.
         -3    1    1    2    0  503 -0.22595939902E+02 -0.19875491183E+01 -0.29636392330E+03  0.29723072163E+03  0.00000000000E+00 0. -1.
<mgrwt>
<rscale>  2 0.22683184E+02</rscale>
<asrwt>0</asrwt>
<pdfrwt beam="1">  1       21 0.13350742E-03 0.22683184E+02</pdfrwt>
<pdfrwt beam="2">  1       21 0.91217154E-01 0.22683184E+02</pdfrwt>
<totfact> 0.64008415E+07</totfact>
</mgrwt>
</event>
<event>
 4    1  0.7499963E+004  0.2935404E+02  0.7546771E-02  0.1605341E+00
         21   -1    0    0  503  502  0.00000000000E+00  0.00000000000E+00  0.11766670366E+01  0.11766670366E+01  0.00000000000E+00 0.  1.
         21   -1    0    0  501  503 -0.00000000000E+00 -0.00000000000E+00 -0.74138352977E+03  0.74138352977E+03  0.00000000000E+00 0.  1.
          4    1    1    2  501    0  0.82423383800E+01  0.28173095127E+02 -0.41122678451E+03  0.41227312274E+03  0.00000000000E+00 0. -1.
         -4    1    1    2    0  502 -0.82423383800E+01 -0.28173095127E+02 -0.32898007822E+03  0.33028707407E+03  0.00000000000E+00 0.  1.
<mgrwt>
<rscale>  2 0.29354036E+02</rscale>
<asrwt>0</asrwt>
<pdfrwt beam="1">  1       21 0.18102525E-03 0.29354036E+02</pdfrwt>
<pdfrwt beam="2">  1       21 0.11405929E+00 0.29354036E+02</pdfrwt>
<totfact> 0.26510504E+07</totfact>
</mgrwt>
</event>
<event>
 4    1  0.7499963E+004  0.3172829E+02  0.7546771E-02  0.1579734E+00
         21   -1    0    0  501  502  0.00000000000E+00  0.00000000000E+00  0.20993150800E+03  0.20993150800E+03  0.00000000000E+00 0.  1.
         21   -1    0    0  502  503 -0.00000000000E+00 -0.00000000000E+00 -0.49464008657E+01  0.49464008657E+01  0.00000000000E+00 0.  1.
          5    1    1    2  501    0 -0.17649192092E+02  0.26366468791E+02  0.83714528004E+02  0.89525453682E+02  0.00000000000E+00 0.  1.
         -5    1    1    2    0  503  0.17649192092E+02 -0.26366468791E+02  0.12127057914E+03  0.12535245519E+03  0.00000000000E+00 0. -1.
<mgrwt>
<rscale>  2 0.31728294E+02</rscale>
<asrwt>0</asrwt>
<pdfrwt beam="1">  1       21 0.32297148E-01 0.31728294E+02</pdfrwt>
<pdfrwt beam="2">  1       21 0.76098491E-03 0.31728294E+02</pdfrwt>
<totfact> 0.42176948E+07</totfact>
</mgrwt>
</event>
<event>
 4    1  0.7499963E+004  0.2007397E+02  0.7546771E-02  0.1743861E+00
         21   -1    0    0  501  502  0.00000000000E+00  0.00000000000E+00  0.11372879154E+02  0.11372879154E+02  0.00000000000E+00 0.  1.
         21   -1    0    0  502  503 -0.00000000000E+00 -0.00000000000E+00 -0.36377462223E+02  0.36377462223E+02  0.00000000000E+00 0.  1.
          1    1    1    2  501    0  0.18090247983E+02  0.87009959629E+01 -0.86533501640E+01  0.21859663124E+02  0.00000000000E+00 0.  1.
         -1    1    1    2    0  503 -0.18090247983E+02 -0.87009959629E+01 -0.16351232905E+02  0.25890678252E+02  0.00000000000E+00 0. -1.
<mgrwt>
<rscale>  2 0.20073973E+02</rscale>
<asrwt>0</asrwt>
<pdfrwt beam="1">  1       21 0.17496737E-02 0.20073973E+02</pdfrwt>
<pdfrwt beam="2">  1       21 0.55965328E-02 0.20073973E+02</pdfrwt>
<totfact> 0.21042252E+08</totfact>
</mgrwt>
</event>
<event>
 4    1  0.7499963E+004  0.2330684E+02  0.7546771E-02  0.1686584E+00
         21   -1    0    0  501  502  0.00000000000E+00  0.00000000000E+00  0.17782695011E+03  0.17782695011E+03  0.00000000000E+00 0.  1.
         21   -1    0    0  502  503 -0.00000000000E+00 -0.00000000000E+00 -0.30548912507E+01  0.30548912507E+01  0.00000000000E+00 0.  1.
          4    1    1    2  501    0 -0.85291241233E+01  0.21690151840E+02  0.86677416692E+02  0.89756243290E+02  0.00000000000E+00 0.  1.
         -4    1    1    2    0  503  0.85291241233E+01 -0.21690151840E+02  0.88094642168E+02  0.91125598071E+02  0.00000000000E+00 0. -1.
<mgrwt>
<rscale>  2 0.23306837E+02</rscale>
<asrwt>0</asrwt>
<pdfrwt beam="1">  1       21 0.27357984E-01 0.23306837E+02</pdfrwt>
<pdfrwt beam="2">  1       21 0.46998341E-03 0.23306837E+02</pdfrwt>
<totfact> 0.10906540E+08</totfact>
</mgrwt>
</event>
<event>
 4    1  0.7499963E+004  0.2289865E+02  0.7546771E-02  0.1693158E+00
         21   -1    0    0  501  502  0.00000000000E+00  0.00000000000E+00  0.63356032400E+02  0.63356032400E+02  0.00000000000E+00 0.  1.
         21   -1    0    0  502  503 -0.00000000000E+00 -0.00000000000E+00 -0.96140891251E+01  0.96140891251E+01  0.00000000000E+00 0.  1.
          2    1    1    2  501    0  0.18582221536E+02  0.13380928153E+02  0.40481296823E+02  0.46508962447E+02  0.00000000000E+00 0.  1.
         -2    1    1    2    0  503 -0.18582221536E+02 -0.13380928153E+02  0.13260646452E+02  0.26461159078E+02  0.00000000000E+00 0. -1.
<mgrwt>
<rscale>  2 0.22898651E+02</rscale>
<asrwt>0</asrwt>
<pdfrwt beam="1">  1       21 0.97470817E-02 0.22898651E+02</pdfrwt>
<pdfrwt beam="2">  1       21 0.14790907E-02 0.22898651E+02</pdfrwt>
<totfact> 0.11514575E+08</totfact>
</mgrwt>
</event>
<event>
 4    1  0.7499963E+004  0.2671246E+02  0.7546771E-02  0.1637557E+00
         21   -1    0    0  503  502  0.00000000000E+00  0.00000000000E+00  0.99497305925E+02  0.99497305925E+02  0.00000000000E+00 0.  1.
         21   -1    0    0  501  503 -0.00000000000E+00 -0.00000000000E+00 -0.93538530500E+01  0.93538530500E+01  0.00000000000E+00 0.  1.
          5    1    1    2  501    0  0.34907505448E+01  0.26483396846E+02  0.71359849323E+02  0.76195693732E+02  0.00000000000E+00 0. -1.
         -5    1    1    2    0  502 -0.34907505448E+01 -0.26483396846E+02  0.18783603553E+02  0.32655465244E+02  0.00000000000E+00 0.  1.
<mgrwt>
<rscale>  2 0.26712462E+02</rscale>
<asrwt>0</asrwt>
<pdfrwt beam="1">  1       21 0.15307277E-01 0.26712462E+02</pdfrwt>
<pdfrwt beam="2">  1       21 0.14390544E-02 0.26712462E+02</pdfrwt>
<totfact> 0.58502631E+07</totfact>
</mgrwt>
</event>
<event>
 4    1  0.7499963E+004  0.2364207E+02  0.7546771E-02  0.1681309E+00
         21   -1    0    0  501  502  0.00000000000E+00  0.00000000000E+00  0.43959371046E+02  0.43959371046E+02  0.00000000000E+00 0.  1.
         21   -1    0    0  502  503 -0.00000000000E+00 -0.00000000000E+00 -0.13630271410E+02  0.13630271410E+02  0.00000000000E+00 0.  1.
          1    1    1    2  501    0  0.11927290711E+02 -0.20412914100E+02  0.77032256298E+01  0.24865377754E+02  0.00000000000E+00 0. -1.
         -1    1    1    2    0  503 -0.11927290711E+02  0.20412914100E+02  0.22625874006E+02  0.32724264702E+02  0.00000000000E+00 0.  1.
<mgrwt>
<rscale>  2 0.23642067E+02</rscale>
<asrwt>0</asrwt>
<pdfrwt beam="1">  1       21 0.67629801E-02 0.23642067E+02</pdfrwt>
<pdfrwt beam="2">  1       21 0.20969649E-02 0.23642067E+02</pdfrwt>
<totfact> 0.12387289E+08</totfact>
</mgrwt>
</event>
<event>
 4    1  0.7499963E+004  0.2680747E+02  0.7546771E-02  0.1636320E+00
         21   -1    0    0  503  502  0.00000000000E+00  0.00000000000E+00  0.14246668678E+03  0.14246668678E+03  0.00000000000E+00 0.  1.
         21   -1    0    0  501  503 -0.00000000000E+00 -0.00000000000E+00 -0.59440546423E+01  0.59440546423E+01  0.00000000000E+00 0.  1.
          4    1    1    2  501    0  0.23755375866E+02  0.12422668277E+02  0.97132394138E+02  0.10076379588E+03  0.00000000000E+00 0.  1.
         -4    1    1    2    0  502 -0.23755375866E+02 -0.12422668277E+02  0.39390237999E+02  0.47646945540E+02  0.00000000000E+00 0. -1.
<mgrwt>
<rscale>  2 0.26807472E+02</rscale>
<asrwt>0</asrwt>
<pdfrwt beam="1">  1       21 0.21917949E-01 0.26807472E+02</pdfrwt>
<pdfrwt beam="2">  1       21 0.91447005E-03 0.26807472E+02</pdfrwt>
<totfact> 0.62283252E+07</totfact>
</mgrwt>
</event>
<event>
 4    1  0.7499963E+004  0.2212640E+02  0.7546771E-02  0.1706075E+00
         21   -1    0    0  503  502  0.00000000000E+00  0.00000000000E+00  0.14909935492E+03  0.14909935492E+03  0.00000000000E+00 0.  1.
         21   -1    0    0  501  503 -0.00000000000E+00 -0.00000000000E+00 -0.35537394179E+01  0.35537394179E+01  0.00000000000E+00 0.  1.
          3    1    1    2  501    0  0.18631008846E+02  0.11935781800E+02  0.51727504675E+02  0.56261106616E+02  0.00000000000E+00 0.  1.
         -3    1    1    2    0  502 -0.18631008846E+02 -0.11935781800E+02  0.93818110830E+02  0.96391987724E+02  0.00000000000E+00 0. -1.
<mgrwt>
<rscale>  2 0.22126395E+02</rscale>
<asrwt>0</asrwt>
<pdfrwt beam="1">  1       21 0.22938358E-01 0.22126395E+02</pdfrwt>
<pdfrwt beam="2">  1       21 0.54672926E-03 0.22126395E+02</pdfrwt>
<totfact> 0.11774159E+08</totfact>
</mgrwt>
</event>
<event>
 4    1  0.7499963E+004  0.5414114E+02  0.7546771E-02  0.1424205E+00
         21   -1    0    0  503  502  0.00000000000E+00  0.00000000000E+00  0.22274357189E+02  0.22274357189E+02  0.00000000000E+00 0.  1.
         21   -1    0    0  501  503 -0.00000000000E+00 -0.00000000000E+00 -0.13287565584E+03  0.13287565584E+03  0.00000000000E+00 0.  1.
          5    1    1    2  501    0 -0.99854032909E+01 -0.53212354711E+02 -0.47694061035E+02  0.72152521999E+02  0.00000000000E+00 0.  1.
         -5    1    1    2    0  502  0.99854032909E+01  0.53212354711E+02 -0.62907237614E+02  0.82997491028E+02  0.00000000000E+00 0. -1.
<mgrwt>
<rscale>  2 0.54141139E+02</rscale>
<asrwt>0</asrwt>
<pdfrwt beam="1">  1       21 0.34268243E-02 0.54141139E+02</pdfrwt>
<pdfrwt beam="2">  1       21 0.20442408E-01 0.54141139E+02</pdfrwt>
<totfact> 0.10181586E+07</totfact>
</mgrwt>
</event>
<event>
 4    1  0.7499963E+004  0.2373700E+02  0.7546771E-02  0.1679835E+00
         21   -1    0    0  503  502  0.00000000000E+00  0.00000000000E+00  0.76042763097E+01  0.76042763097E+01  0.00000000000E+00 0. -1.
         21   -1    0    0  501  503 -0.00000000000E+00 -0.00000000000E+00 -0.79582925957E+02  0.79582925957E+02  0.00000000000E+00 0. -1.
          5    1    1    2  501    0  0.20850260221E+02  0.11345130727E+02 -0.24542549797E+02  0.34143551266E+02  0.00000000000E+00 0. -1.
         -5    1    1    2    0  502 -0.20850260221E+02 -0.11345130727E+02 -0.47436099850E+02  0.53043651001E+02  0.00000000000E+00 0.  1.
<mgrwt>
<rscale>  2 0.23737004E+02</rscale>
<asrwt>0</asrwt>
<pdfrwt beam="1">  1       21 0.11698887E-02 0.23737004E+02</pdfrwt>
<pdfrwt beam="2">  1       21 0.12243527E-01 0.23737004E+02</pdfrwt>
<totfact> 0.11354021E+08</totfact>
</mgrwt>
</event>
<event>
 4    1  0.7499963E+004  0.3262490E+02  0.7546771E-02  0.1570764E+00
         21   -1    0    0  501  502  0.00000000000E+00  0.00000000000E+00  0.18666622721E+02  0.18666622721E+02  0.00000000000E+00 0.  1.
         21   -1    0    0  502  503 -0.00000000000E+00 -0.00000000000E+00 -0.57081132341E+02  0.57081132341E+02  0.00000000000E+00 0.  1.
          4    1    1    2  501    0 -0.13136255842E+02  0.29863404564E+02 -0.17975061079E+02  0.37248986167E+02  0.00000000000E+00 0.  1.
         -4    1    1    2    0  503  0.13136255842E+02 -0.29863404564E+02 -0.20439448541E+02  0.38498768894E+02  0.00000000000E+00 0. -1.
<mgrwt>
<rscale>  2 0.32624901E+02</rscale>
<asrwt>0</asrwt>
<pdfrwt beam="1">  1       21 0.28717882E-02 0.32624901E+02</pdfrwt>
<pdfrwt beam="2">  1       21 0.87817125E-02 0.32624901E+02</pdfrwt>
<totfact> 0.53613551E+07</totfact>
</mgrwt>
</event>
<event>
 4    1  0.7499963E+004  0.2294346E+02  0.7546771E-02  0.1692428E+00
         21   -1    0    0  501  502  0.00000000000E+00  0.00000000000E+00  0.43567128585E+02  0.43567128585E+02  0.00000000000E+00 0.  1.
         21   -1    0    0  502  503 -0.00000000000E+00 -0.00000000000E+00 -0.12199366635E+02  0.12199366635E+02  0.00000000000E+00 0.  1.
          1    1    1    2  501    0 -0.22929116346E+02  0.81107543001E+00  0.12955417864E+02  0.26348530733E+02  0.00000000000E+00 0. -1.
         -1    1    1    2    0  503  0.22929116346E+02 -0.81107543001E+00  0.18412344086E+02  0.29417964486E+02  0.00000000000E+00 0.  1.
<mgrwt>
<rscale>  2 0.22943457E+02</rscale>
<asrwt>0</asrwt>
<pdfrwt beam="1">  1       21 0.67026351E-02 0.22943457E+02</pdfrwt>
<pdfrwt beam="2">  1       21 0.18768257E-02 0.22943457E+02</pdfrwt>
<totfact> 0.14767412E+08</totfact>
</mgrwt>
</event>
<event>
 4    1  0.7499963E+004  0.2730885E+02  0.7546771E-02  0.1629895E+00
         21   -1    0    0  501  502  0.00000000000E+00  0.00000000000E+00  0.31657731588E+02  0.31657731588E+02  0.00000000000E+00 0.  1.
         21   -1    0    0  502  503 -0.00000000000E+00 -0.00000000000E+00 -0.23565206661E+02  0.23565206661E+02  0.00000000000E+00 0.  1.
          2    1    1    2  501    0 -0.24758546771E+02  0.11523345241E+02  0.35429700908E+01  0.27537715243E+02  0.00000000000E+00 0.  1.
         -2    1    1    2    0  503  0.24758546771E+02 -0.11523345241E+02  0.45495548360E+01  0.27685223007E+02  0.00000000000E+00 0. -1.
<mgrwt>
<rscale>  2 0.27308847E+02</rscale>
<asrwt>0</asrwt>
<pdfrwt beam="1">  1       21 0.48704203E-02 0.27308847E+02</pdfrwt>
<pdfrwt beam="2">  1       21 0.36254164E-02 0.27308847E+02</pdfrwt>
<totfact> 0.93088822E+07</totfact>
</mgrwt>
</event>
<event>
 4    1  0.7499963E+004  0.5297388E+02  0.7546771E-02  0.1429931E+00
         21   -1    0    0  503  502  0.00000000000E+00  0.00000000000E+00  0.93635761620E+01  0.93635761620E+01  0.00000000000E+00 0.  1.
         21   -1    0    0  501  503 -0.00000000000E+00 -0.00000000000E+00 -0.46235686176E+03  0.46235686176E+03  0.00000000000E+00 0.  1.
          3    1    1    2  501    0  0.22820205649E+02 -0.47806592852E+02 -0.86600173658E+02  0.10151759544E+03  0.00000000000E+00 0. -1.
         -3    1    1    2    0  502 -0.22820205649E+02  0.47806592852E+02 -0.36639311194E+03  0.37020284249E+03  0.00000000000E+00 0.  1.
<mgrwt>
<rscale>  2 0.52973881E+02</rscale>
<asrwt>0</asrwt>
<pdfrwt beam="1">  1       21 0.14405508E-02 0.52973881E+02</pdfrwt>
<pdfrwt beam="2">  1       21 0.71131797E-01 0.52973881E+02</pdfrwt>
<totfact> 0.35496433E+06</totfact>
</mgrwt>
</event>
<event>
 4    1  0.7499963E+004  0.3155147E+02  0.7546771E-02  0.1581546E+00
         21   -1    0    0  503  502  0.00000000000E+00  0.00000000000E+00  0.89537884315E+01  0.89537884315E+01  0.00000000000E+00 0.  1.
         21   -1    0    0  501  503 -0.00000000000E+00 -0.00000000000E+00 -0.24274782996E+03  0.24274782996E+03  0.00000000000E+00 0.  1.
          5    1    1    2  501    0  0.26118615440E+02 -0.17700654701E+02 -0.24245877168E+02  0.39791428838E+02  0.00000000000E+00 0. -1.
         -5    1    1    2    0  502 -0.26118615440E+02  0.17700654701E+02 -0.20954816436E+03  0.21191018956E+03  0.00000000000E+00 0.  1.
<mgrwt>
<rscale>  2 0.31551470E+02</rscale>
<asrwt>0</asrwt>
<pdfrwt beam="1">  1       21 0.13775062E-02 0.31551470E+02</pdfrwt>
<pdfrwt beam="2">  1       21 0.37345812E-01 0.31551470E+02</pdfrwt>
<totfact> 0.13026055E+07</totfact>
</mgrwt>
</event>
<event>
 4    1  0.7499963E+004  0.4086057E+02  0.7546771E-02  0.1501972E+00
         21   -1    0    0  503  502  0.00000000000E+00  0.00000000000E+00  0.31309110998E+02  0.31309110998E+02  0.00000000000E+00 0.  1.
         21   -1    0    0  501  503 -0.00000000000E+00 -0.00000000000E+00 -0.78908405405E+02  0.78908405405E+02  0.00000000000E+00 0.  1.
          4    1    1    2  501    0 -0.16659375556E+02  0.37310203979E+02 -0.55178035941E+02  0.68660044896E+02  0.00000000000E+00 0.  1.
         -4    1    1    2    0  502  0.16659375556E+02 -0.37310203979E+02  0.75787415334E+01  0.41557471507E+02  0.00000000000E+00 0. -1.
<mgrwt>
<rscale>  2 0.40860569E+02</rscale>
<asrwt>0</asrwt>
<pdfrwt beam="1">  1       21 0.48167862E-02 0.40860569E+02</pdfrwt>
<pdfrwt beam="2">  1       21 0.12139755E-01 0.40860569E+02</pdfrwt>
<totfact> 0.14147113E+07</totfact>
</mgrwt>
</event>
<event>
 4    1  0.7499963E+004  0.2231572E+02  0.7546771E-02  0.1702848E+00
         21   -1    0    0  503  502  0.00000000000E+00  0.00000000000E+00  0.58675995073E+01  0.58675995073E+01  0.00000000000E+00 0. -1.
         21   -1    0    0  501  503 -0.00000000000E+00 -0.00000000000E+00 -0.10241350242E+03  0.10241350242E+03  0.00000000000E+00 0. -1.
          5    1    1    2  501    0 -0.67055593226E+00  0.22305641214E+02 -0.70680023687E+02  0.74119208197E+02  0.00000000000E+00 0. -1.
         -5    1    1    2    0  502  0.67055593226E+00 -0.22305641214E+02 -0.25865879228E+02  0.34161893733E+02  0.00000000000E+00 0.  1.
<mgrwt>
<rscale>  2 0.22315718E+02</rscale>
<asrwt>0</asrwt>
<pdfrwt beam="1">  1       21 0.90270775E-03 0.22315718E+02</pdfrwt>
<pdfrwt beam="2">  1       21 0.15755921E-01 0.22315718E+02</pdfrwt>
<totfact> 0.10748313E+08</totfact>
</mgrwt>
</event>
<event>
 4    1  0.7499963E+004  0.3685297E+02  0.7546771E-02  0.1532736E+00
         21   -1    0    0  503  502  0.00000000000E+00  0.00000000000E+00  0.67666928924E+01  0.67666928924E+01  0.00000000000E+00 0.  1.
         21   -1    0    0  501  503 -0.00000000000E+00 -0.00000000000E+00 -0.21907760459E+03  0.21907760459E+03  0.00000000000E+00 0.  1.
          1    1    1    2  501    0 -0.11657335890E+02  0.34960662999E+02 -0.13885253894E+03  0.14365990745E+03  0.00000000000E+00 0. -1.
         -1    1    1    2    0  502  0.11657335890E+02 -0.34960662999E+02 -0.73458372759E+02  0.82184390037E+02  0.00000000000E+00 0.  1.
<mgrwt>
<rscale>  2 0.36852971E+02</rscale>
<asrwt>0</asrwt>
<pdfrwt beam="1">  1       21 0.10410296E-02 0.36852971E+02</pdfrwt>
<pdfrwt beam="2">  1       21 0.33704249E-01 0.36852971E+02</pdfrwt>
<totfact> 0.24880165E+07</totfact>
</mgrwt>
</event>
<event>
 4    1  0.7499963E+004  0.2424986E+02  0.7546771E-02  0.1672016E+00
         21   -1    0    0  501  502  0.00000000000E+00  0.00000000000E+00  0.15382106631E+03  0.15382106631E+03  0.00000000000E+00 0.  1.
         21   -1    0    0  502  503 -0.00000000000E+00 -0.00000000000E+00 -0.39314137347E+01  0.39314137347E+01  0.00000000000E+00 0.  1.
          3    1    1    2  501    0  0.15063477850E+02 -0.19003870923E+02  0.88044064125E+02  0.91322574989E+02  0.00000000000E+00 0.  1.
         -3    1    1    2    0  503 -0.15063477850E+02  0.19003870923E+02  0.61845588454E+02  0.66429905060E+02  0.00000000000E+00 0. -1.
<mgrwt>
<rscale>  2 0.24249855E+02</rscale>
<asrwt>0</asrwt>
<pdfrwt beam="1">  1       21 0.23664775E-01 0.24249855E+02</pdfrwt>
<pdfrwt beam="2">  1       21 0.60483300E-03 0.24249855E+02</pdfrwt>
<totfact> 0.98401277E+07</totfact>
</mgrwt>
</event>
<event>
 4    1  0.7499963E+004  0.2181382E+02  0.7546771E-02  0.1711492E+00
         21   -1    0    0  503  502  0.00000000000E+00  0.00000000000E+00  0.17102539720E+02  0.17102539720E+02  0.00000000000E+00 0. -1.
         21   -1    0    0  501  503 -0.00000000000E+00 -0.00000000000E+00 -0.28132071285E+02  0.28132071285E+02  0.00000000000E+00 0. -1.
          5    1    1    2  501    0  0.24264933673E+00  0.21812468488E+02 -0.78857181821E+01  0.23195413587E+02  0.00000000000E+00 0. -1.
         -5    1    1    2    0  502 -0.24264933673E+00 -0.21812468488E+02 -0.31438133833E+01  0.22039197418E+02  0.00000000000E+00 0.  1.
<mgrwt>
<rscale>  2 0.21813818E+02</rscale>
<asrwt>0</asrwt>
<pdfrwt beam="1">  1       21 0.26311600E-02 0.21813818E+02</pdfrwt>
<pdfrwt beam="2">  1       21 0.43280109E-02 0.21813818E+02</pdfrwt>
<totfact> 0.17379074E+08</totfact>
</mgrwt>
</event>
<event>
 4    1  0.7499963E+004  0.2960470E+02  0.7546771E-02  0.1602500E+00
         21   -1    0    0  503  502  0.00000000000E+00  0.00000000000E+00  0.59165986339E+02  0.59165986339E+02  0.00000000000E+00 0. -1.
         21   -1    0    0  501  503 -0.00000000000E+00 -0.00000000000E+00 -0.17498882798E+02  0.17498882798E+02  0.00000000000E+00 0. -1.
          4    1    1    2  501    0 -0.28397693257E+02  0.83671459064E+01  0.35850714413E+02  0.46494212939E+02  0.00000000000E+00 0. -1.
         -4    1    1    2    0  502  0.28397693257E+02 -0.83671459064E+01  0.58163891281E+01  0.30170656198E+02  0.00000000000E+00 0.  1.
<mgrwt>
<rscale>  2 0.29604697E+02</rscale>
<asrwt>0</asrwt>
<pdfrwt beam="1">  1       21 0.91024594E-02 0.29604697E+02</pdfrwt>
<pdfrwt beam="2">  1       21 0.26921358E-02 0.29604697E+02</pdfrwt>
<totfact> 0.54734487E+07</totfact>
</mgrwt>
</event>
<event>
 4    1  0.7499963E+004  0.2534936E+02  0.7546771E-02  0.1656034E+00
         21   -1    0    0  501  502  0.00000000000E+00  0.00000000000E+00  0.12466132021E+03  0.12466132021E+03  0.00000000000E+00 0.  1.
         21   -1    0    0  502  503 -0.00000000000E+00 -0.00000000000E+00 -0.64540477270E+01  0.64540477270E+01  0.00000000000E+00 0.  1.
          2    1    1    2  501    0  0.14468100950E+02  0.20814991391E+02  0.29688372091E+02  0.39038304896E+02  0.00000000000E+00 0.  1.
         -2    1    1    2    0  503 -0.14468100950E+02 -0.20814991391E+02  0.88518900392E+02  0.92077063042E+02  0.00000000000E+00 0. -1.
<mgrwt>
<rscale>  2 0.25349355E+02</rscale>
<asrwt>0</asrwt>
<pdfrwt beam="1">  1       21 0.19178663E-01 0.25349355E+02</pdfrwt>
<pdfrwt beam="2">  1       21 0.99293051E-03 0.25349355E+02</pdfrwt>
<totfact> 0.68652621E+07</totfact>
</mgrwt>
</event>
<event>
 4    1  0.7499963E+004  0.2967575E+02  0.7546771E-02  0.1601701E+00
         21   -1    0    0  501  502  0.00000000000E+00  0.00000000000E+00  0.79473113743E+02  0.79473113743E+02  0.00000000000E+00 0.  1.
         21   -1    0    0  502  503 -0.00000000000E+00 -0.00000000000E+00 -0.11411514336E+02  0.11411514336E+02  0.00000000000E+00 0.  1.
          1    1    1    2  501    0 -0.16319368975E+01  0.29630846226E+02  0.26298439523E+02  0.39651711028E+02  0.00000000000E+00 0.  1.
         -1    1    1    2    0  503  0.16319368975E+01 -0.29630846226E+02  0.41763159884E+02  0.51232917051E+02  0.00000000000E+00 0. -1.
<mgrwt>
<rscale>  2 0.29675752E+02</rscale>
<asrwt>0</asrwt>
<pdfrwt beam="1">  1       21 0.12226633E-01 0.29675752E+02</pdfrwt>
<pdfrwt beam="2">  1       21 0.17556176E-02 0.29675752E+02</pdfrwt>
<totfact> 0.64851630E+07</totfact>
</mgrwt>
</event>
<event>
 4    1  0.7499963E+004  0.2789924E+02  0.7546771E-02  0.1622542E+00
         21   -1    0    0  503  502  0.00000000000E+00  0.00000000000E+00  0.31365759055E+02  0.31365759055E+02  0.00000000000E+00 0. -1.
         21   -1    0    0  501  503 -0.00000000000E+00 -0.00000000000E+00 -0.25518778347E+02  0.25518778347E+02  0.00000000000E+00 0. -1.
          1    1    1    2  501    0  0.13346557098E+02 -0.24499733182E+02 -0.17970786396E+01  0.27957056426E+02  0.00000000000E+00 0. -1.
         -1    1    1    2    0  502 -0.13346557098E+02  0.24499733182E+02  0.76440593468E+01  0.28927480977E+02  0.00000000000E+00 0.  1.
<mgrwt>
<rscale>  2 0.27899239E+02</rscale>
<asrwt>0</asrwt>
<pdfrwt beam="1">  1       21 0.48255014E-02 0.27899239E+02</pdfrwt>
<pdfrwt beam="2">  1       21 0.39259659E-02 0.27899239E+02</pdfrwt>
<totfact> 0.83749672E+07</totfact>
</mgrwt>
</event>
<event>
 4    1  0.7499963E+004  0.2299791E+02  0.7546771E-02  0.1691544E+00
         21   -1    0    0  503  502  0.00000000000E+00  0.00000000000E+00  0.49343845880E+01  0.49343845880E+01  0.00000000000E+00 0.  1.
         21   -1    0    0  501  503 -0.00000000000E+00 -0.00000000000E+00 -0.11661720829E+03  0.11661720829E+03  0.00000000000E+00 0.  1.
          2    1    1    2  501    0 -0.11628358063E+02 -0.19841498071E+02 -0.73123699364E+02  0.76654935690E+02  0.00000000000E+00 0. -1.
         -2    1    1    2    0  502  0.11628358063E+02  0.19841498071E+02 -0.38559124335E+02  0.44896657185E+02  0.00000000000E+00 0.  1.
<mgrwt>
<rscale>  2 0.22997908E+02</rscale>
<asrwt>0</asrwt>
<pdfrwt beam="1">  1       21 0.75913606E-03 0.22997908E+02</pdfrwt>
<pdfrwt beam="2">  1       21 0.17941110E-01 0.22997908E+02</pdfrwt>
<totfact> 0.11233775E+08</totfact>
</mgrwt>
</event>
<event>
 4    1  0.7499963E+004  0.2778075E+02  0.7546771E-02  0.1624000E+00
         21   -1    0    0  501  502  0.00000000000E+00  0.00000000000E+00  0.13605728064E+03  0.13605728064E+03  0.00000000000E+00 0. -1.
         21   -1    0    0  502  503 -0.00000000000E+00 -0.00000000000E+00 -0.70414897727E+01  0.70414897727E+01  0.00000000000E+00 0. -1.
          2    1    1    2  501    0  0.16840208469E+02 -0.22094738241E+02  0.32958500253E+02  0.43104904804E+02  0.00000000000E+00 0.  1.
         -2    1    1    2    0  503 -0.16840208469E+02  0.22094738241E+02  0.96057290611E+02  0.99993865606E+02  0.00000000000E+00 0. -1.
<mgrwt>
<rscale>  2 0.27780750E+02</rscale>
<asrwt>0</asrwt>
<pdfrwt beam="1">  1       21 0.20931887E-01 0.27780750E+02</pdfrwt>
<pdfrwt beam="2">  1       21 0.10833062E-02 0.27780750E+02</pdfrwt>
<totfact> 0.52742837E+07</totfact>
</mgrwt>
</event>
<event>
 4    1  0.7499963E+004  0.2986570E+02  0.7546771E-02  0.1599578E+00
         21   -1    0    0  503  502  0.00000000000E+00  0.00000000000E+00  0.13965346544E+02  0.13965346544E+02  0.00000000000E+00 0. -1.
         21   -1    0    0  501  503 -0.00000000000E+00 -0.00000000000E+00 -0.63938870352E+02  0.63938870352E+02  0.00000000000E+00 0. -1.
          2    1    1    2  501    0  0.29524741465E+02 -0.44999646750E+01 -0.23703960844E+02  0.38129225016E+02  0.00000000000E+00 0. -1.
         -2    1    1    2    0  502 -0.29524741465E+02  0.44999646750E+01 -0.26269562965E+02  0.39774991880E+02  0.00000000000E+00 0.  1.
<mgrwt>
<rscale>  2 0.29865700E+02</rscale>
<asrwt>0</asrwt>
<pdfrwt beam="1">  1       21 0.21485148E-02 0.29865700E+02</pdfrwt>
<pdfrwt beam="2">  1       21 0.98367493E-02 0.29865700E+02</pdfrwt>
<totfact> 0.68500721E+07</totfact>
</mgrwt>
</event>
<event>
 4    1  0.7499963E+004  0.2049046E+02  0.7546771E-02  0.1735747E+00
         21   -1    0    0  503  502  0.00000000000E+00  0.00000000000E+00  0.13917265662E+02  0.13917265662E+02  0.00000000000E+00 0.  1.
         21   -1    0    0  501  503 -0.00000000000E+00 -0.00000000000E+00 -0.31711234304E+02  0.31711234304E+02  0.00000000000E+00 0.  1.
          3    1    1    2  501    0  0.16612001519E+02 -0.11995840560E+02 -0.13929534433E+02  0.24776818092E+02  0.00000000000E+00 0. -1.
         -3    1    1    2    0  502 -0.16612001519E+02  0.11995840560E+02 -0.38644342079E+01  0.20851681874E+02  0.00000000000E+00 0.  1.
<mgrwt>
<rscale>  2 0.20490456E+02</rscale>
<asrwt>0</asrwt>
<pdfrwt beam="1">  1       21 0.21411178E-02 0.20490456E+02</pdfrwt>
<pdfrwt beam="2">  1       21 0.48786514E-02 0.20490456E+02</pdfrwt>
<totfact> 0.19360747E+08</totfact>
</mgrwt>
</event>
<event>
 4    1  0.7499963E+004  0.2852470E+02  0.7546771E-02  0.1614993E+00
         21   -1    0    0  503  502  0.00000000000E+00  0.00000000000E+00  0.17477319292E+02  0.17477319292E+02  0.00000000000E+00 0. -1.
         21   -1    0    0  501  503 -0.00000000000E+00 -0.00000000000E+00 -0.48631084928E+02  0.48631084928E+02  0.00000000000E+00 0. -1.
          2    1    1    2  501    0 -0.28126529048E+02 -0.47494007910E+01 -0.87475037752E+01  0.29835838625E+02  0.00000000000E+00 0. -1.
         -2    1    1    2    0  502  0.28126529048E+02  0.47494007910E+01 -0.22406261861E+02  0.36272565594E+02  0.00000000000E+00 0.  1.
<mgrwt>
<rscale>  2 0.28524699E+02</rscale>
<asrwt>0</asrwt>
<pdfrwt beam="1">  1       21 0.26888184E-02 0.28524699E+02</pdfrwt>
<pdfrwt beam="2">  1       21 0.74817051E-02 0.28524699E+02</pdfrwt>
<totfact> 0.75115612E+07</totfact>
</mgrwt>
</event>
<event>
 4    1  0.7499963E+004  0.3224950E+02  0.7546771E-02  0.1574476E+00
         21   -1    0    0  503  502  0.00000000000E+00  0.00000000000E+00  0.24029470834E+02  0.24029470834E+02  0.00000000000E+00 0.  1.
         21   -1    0    0  501  503 -0.00000000000E+00 -0.00000000000E+00 -0.45374893265E+02  0.45374893265E+02  0.00000000000E+00 0.  1.
          4    1    1    2  501    0  0.30457531947E+02  0.10600428518E+02 -0.18126543003E+02  0.36994619857E+02  0.00000000000E+00 0.  1.
         -4    1    1    2    0  502 -0.30457531947E+02 -0.10600428518E+02 -0.32188794272E+01  0.32409744243E+02  0.00000000000E+00 0. -1.
<mgrwt>
<rscale>  2 0.32249501E+02</rscale>
<asrwt>0</asrwt>
<pdfrwt beam="1">  1       21 0.36968417E-02 0.32249501E+02</pdfrwt>
<pdfrwt beam="2">  1       21 0.69807527E-02 0.32249501E+02</pdfrwt>
<totfact> 0.52393767E+07</totfact>
</mgrwt>
</event>
<event>
 4    1  0.7499963E+004  0.2214890E+02  0.7546771E-02  0.1705689E+00
         21   -1    0    0  503  502  0.00000000000E+00  0.00000000000E+00  0.36655255568E+02  0.36655255568E+02  0.00000000000E+00 0.  1.
         21   -1    0    0  501  503 -0.00000000000E+00 -0.00000000000E+00 -0.20391876931E+02  0.20391876931E+02  0.00000000000E+00 0.  1.
          2    1    1    2  501    0 -0.20071685202E+02  0.93648939337E+01 -0.85902057358E+01  0.23756376404E+02  0.00000000000E+00 0. -1.
         -2    1    1    2    0  502  0.20071685202E+02 -0.93648939337E+01  0.24853584373E+02  0.33290756096E+02  0.00000000000E+00 0.  1.
<mgrwt>
<rscale>  2 0.22148900E+02</rscale>
<asrwt>0</asrwt>
<pdfrwt beam="1">  1       21 0.56392701E-02 0.22148900E+02</pdfrwt>
<pdfrwt beam="2">  1       21 0.31372118E-02 0.22148900E+02</pdfrwt>
<totfact> 0.87277381E+07</totfact>
</mgrwt>
</event>
<event>
 4    1  0.7499963E+004  0.2097285E+02  0.7546771E-02  0.1726646E+00
         21   -1    0    0  501  502  0.00000000000E+00  0.00000000000E+00  0.35138258754E+02  0.35138258754E+02  0.00000000000E+00 0. -1.
         21   -1    0    0  502  503 -0.00000000000E+00 -0.00000000000E+00 -0.12690337054E+02  0.12690337054E+02  0.00000000000E+00 0. -1.
          2    1    1    2  501    0 -0.35277096477E+01  0.20674036657E+02  0.84370863085E+01  0.22606303378E+02  0.00000000000E+00 0. -1.
         -2    1    1    2    0  503  0.35277096477E+01 -0.20674036657E+02  0.14010835391E+02  0.25222292430E+02  0.00000000000E+00 0.  1.
<mgrwt>
<rscale>  2 0.20972852E+02</rscale>
<asrwt>0</asrwt>
<pdfrwt beam="1">  1       21 0.54058859E-02 0.20972852E+02</pdfrwt>
<pdfrwt beam="2">  1       21 0.19523596E-02 0.20972852E+02</pdfrwt>
<totfact> 0.19086267E+08</totfact>
</mgrwt>
</event>
<event>
 4    1  0.7499963E+004  0.2116445E+02  0.7546771E-02  0.1723116E+00
         21   -1    0    0  501  502  0.00000000000E+00  0.00000000000E+00  0.87791821924E+02  0.87791821924E+02  0.00000000000E+00 0.  1.
         21   -1    0    0  502  503 -0.00000000000E+00 -0.00000000000E+00 -0.51129257418E+01  0.51129257418E+01  0.00000000000E+00 0.  1.
          3    1    1    2  501    0 -0.74720796392E+01 -0.19801562795E+02  0.39214609891E+02  0.44561412591E+02  0.00000000000E+00 0. -1.
         -3    1    1    2    0  503  0.74720796392E+01  0.19801562795E+02  0.43464286292E+02  0.48343335074E+02  0.00000000000E+00 0.  1.
<mgrwt>
<rscale>  2 0.21164448E+02</rscale>
<asrwt>0</asrwt>
<pdfrwt beam="1">  1       21 0.13506433E-01 0.21164448E+02</pdfrwt>
<pdfrwt beam="2">  1       21 0.78660402E-03 0.21164448E+02</pdfrwt>
<totfact> 0.16870996E+08</totfact>
</mgrwt>
</event>
<event>
 4    1  0.7499963E+004  0.4398996E+02  0.7546771E-02  0.1480747E+00
         21   -1    0    0  501  502  0.00000000000E+00  0.00000000000E+00  0.13763414808E+02  0.13763414808E+02  0.00000000000E+00 0. -1.
         21   -1    0    0  502  503 -0.00000000000E+00 -0.00000000000E+00 -0.16759800698E+03  0.16759800698E+03  0.00000000000E+00 0. -1.
          3    1    1    2  501    0  0.61122437851E+01 -0.43563249635E+02 -0.11331365680E+03  0.12155287352E+03  0.00000000000E+00 0.  1.
         -3    1    1    2    0  503 -0.61122437851E+01  0.43563249635E+02 -0.40520935372E+02  0.59808548271E+02  0.00000000000E+00 0. -1.
<mgrwt>
<rscale>  2 0.43989956E+02</rscale>
<asrwt>0</asrwt>
<pdfrwt beam="1">  1       21 0.21174485E-02 0.43989956E+02</pdfrwt>
<pdfrwt beam="2">  1       21 0.25784307E-01 0.43989956E+02</pdfrwt>
<totfact> 0.13992165E+07</totfact>
</mgrwt>
</event>
<event>
 4    1  0.7499963E+004  0.2045904E+02  0.7546771E-02  0.1736351E+00
         21   -1    0    0  501  502  0.00000000000E+00  0.00000000000E+00  0.28247421206E+03  0.28247421206E+03  0.00000000000E+00 0.  1.
         21   -1    0    0  502  503 -0.00000000000E+00 -0.00000000000E+00 -0.16188590160E+01  0.16188590160E+01  0.00000000000E+00 0.  1.
          5    1    1    2  501    0  0.11142076312E+02 -0.17158858590E+02  0.18175798905E+03  0.18290581969E+03  0.00000000000E+00 0.  1.
         -5    1    1    2    0  503 -0.11142076312E+02  0.17158858590E+02  0.99097363993E+02  0.10118725139E+03  0.00000000000E+00 0. -1.
<mgrwt>
<rscale>  2 0.20459039E+02</rscale>
<asrwt>0</asrwt>
<pdfrwt beam="1">  1       21 0.43457532E-01 0.20459039E+02</pdfrwt>
<pdfrwt beam="2">  1       21 0.24905546E-03 0.20459039E+02</pdfrwt>
<totfact> 0.11310717E+08</totfact>
</mgrwt>
</event>
<event>
 4    1  0.7499963E+004  0.2816746E+02  0.7546771E-02  0.1619275E+00
         21   -1    0    0  501  502  0.00000000000E+00  0.00000000000E+00  0.79788868160E+00  0.79788868160E+00  0.00000000000E+00 0. -1.
         21   -1    0    0  502  503 -0.00000000000E+00 -0.00000000000E+00 -0.10067174661E+04  0.10067174661E+04  0.00000000000E+00 0. -1.
          3    1    1    2  501    0  0.58286219891E+01 -0.27557812947E+02 -0.44719612896E+03  0.44808234025E+03  0.00000000000E+00 0.  1.
         -3    1    1    2    0  503 -0.58286219891E+01  0.27557812947E+02 -0.55872344848E+03  0.55943301456E+03  0.00000000000E+00 0. -1.
<mgrwt>
<rscale>  2 0.28167462E+02</rscale>
<asrwt>0</asrwt>
<pdfrwt beam="1">  1       21 0.12275234E-03 0.28167462E+02</pdfrwt>
<pdfrwt beam="2">  1       21 0.15487931E+00 0.28167462E+02</pdfrwt>
<totfact> 0.22566761E+07</totfact>
</mgrwt>
</event>
<event>
 4    1  0.7499963E+004  0.2092198E+02  0.7546771E-02  0.1727591E+00
         21   -1    0    0  503  502  0.00000000000E+00  0.00000000000E+00  0.50684593389E+02  0.50684593389E+02  0.00000000000E+00 0. -1.
         21   -1    0    0  501  503 -0.00000000000E+00 -0.00000000000E+00 -0.11118851476E+02  0.11118851476E+02  0.00000000000E+00 0. -1.
          2    1    1    2  501    0  0.71867052669E+01 -0.19648936260E+02  0.34384397867E+02  0.40249425405E+02  0.00000000000E+00 0.  1.
         -2    1    1    2    0  502 -0.71867052669E+01  0.19648936260E+02  0.51813440468E+01  0.21554019460E+02  0.00000000000E+00 0. -1.
<mgrwt>
<rscale>  2 0.20921984E+02</rscale>
<asrwt>0</asrwt>
<pdfrwt beam="1">  1       21 0.77976296E-02 0.20921984E+02</pdfrwt>
<pdfrwt beam="2">  1       21 0.17105926E-02 0.20921984E+02</pdfrwt>
<totfact> 0.12949368E+08</totfact>
</mgrwt>
</event>
<event>
 4    1  0.7499963E+004  0.2474546E+02  0.7546771E-02  0.1664685E+00
         21   -1    0    0  503  502  0.00000000000E+00  0.00000000000E+00  0.10994289880E+01  0.10994289880E+01  0.00000000000E+00 0. -1.
         21   -1    0    0  501  503 -0.00000000000E+00 -0.00000000000E+00 -0.58793744326E+03  0.58793744326E+03  0.00000000000E+00 0. -1.
          5    1    1    2  501    0 -0.24569882078E+02 -0.29425588027E+01 -0.36102279955E+03  0.36186986549E+03  0.00000000000E+00 0. -1.
         -5    1    1    2    0  502  0.24569882078E+02  0.29425588027E+01 -0.22581521472E+03  0.22716700676E+03  0.00000000000E+00 0.  1.
<mgrwt>
<rscale>  2 0.24745459E+02</rscale>
<asrwt>0</asrwt>
<pdfrwt beam="1">  1       21 0.16914281E-03 0.24745459E+02</pdfrwt>
<pdfrwt beam="2">  1       21 0.90451974E-01 0.24745459E+02</pdfrwt>
<totfact> 0.47297695E+07</totfact>
</mgrwt>
</event>
<event>
 4    1  0.7499963E+004  0.7698209E+02  0.7546771E-02  0.1337841E+00
         21   -1    0    0  503  502  0.00000000000E+00  0.00000000000E+00  0.16056970410E+02  0.16056970410E+02  0.00000000000E+00 0. -1.
         21   -1    0    0  501  503 -0.00000000000E+00 -0.00000000000E+00 -0.40151906537E+03  0.40151906537E+03  0.00000000000E+00 0. -1.
          5    1    1    2  501    0 -0.57002041176E+02  0.51739826444E+02 -0.13338204055E+03  0.15400328269E+03  0.00000000000E+00 0. -1.
         -5    1    1    2    0  502  0.57002041176E+02 -0.51739826444E+02 -0.25208005441E+03  0.26357275309E+03  0.00000000000E+00 0.  1.
<mgrwt>
<rscale>  2 0.76982091E+02</rscale>
<asrwt>0</asrwt>
<pdfrwt beam="1">  1       21 0.24703032E-02 0.76982091E+02</pdfrwt>
<pdfrwt beam="2">  1       21 0.61772163E-01 0.76982091E+02</pdfrwt>
<totfact> 0.20797877E+06</totfact>
</mgrwt>
</event>
<event>
 4    1  0.7499963E+004  0.2992261E+02  0.7546771E-02  0.1598946E+00
         21   -1    0    0  503  502  0.00000000000E+00  0.00000000000E+00  0.12492809011E+04  0.12492809011E+04  0.00000000000E+00 0.  1.
         21   -1    0    0  501  503 -0.00000000000E+00 -0.00000000000E+00 -0.78753350339E+00  0.78753350339E+00  0.00000000000E+00 0.  1.
          3    1    1    2  501    0 -0.29643083471E+02  0.40804932840E+01  0.43679869744E+03  0.43782241252E+03  0.00000000000E+00 0. -1.
         -3    1    1    2    0  502  0.29643083471E+02 -0.40804932840E+01  0.81169467017E+03  0.81224602209E+03  0.00000000000E+00 0.  1.
<mgrwt>
<rscale>  2 0.29922614E+02</rscale>
<asrwt>0</asrwt>
<pdfrwt beam="1">  1       21 0.19219548E+00 0.29922614E+02</pdfrwt>
<pdfrwt beam="2">  1       21 0.12116000E-03 0.29922614E+02</pdfrwt>
<totfact> 0.13502276E+07</totfact>
</mgrwt>
</event>
<event>
 4    1  0.7499963E+004  0.2230380E+02  0.7546771E-02  0.1703050E+00
         21   -1    0    0  503  502  0.00000000000E+00  0.00000000000E+00  0.75770824191E+02  0.75770824191E+02  0.00000000000E+00 0.  1.
         21   -1    0    0  501  503 -0.00000000000E+00 -0.00000000000E+00 -0.66539731285E+01  0.66539731285E+01  0.00000000000E+00 0.  1.
          2    1    1    2  501    0 -0.19647415301E+02  0.10556446919E+02  0.39315512878E+02  0.45201427548E+02  0.00000000000E+00 0. -1.
         -2    1    1    2    0  502  0.19647415301E+02 -0.10556446919E+02  0.29801338185E+02  0.37223369772E+02  0.00000000000E+00 0.  1.
<mgrwt>
<rscale>  2 0.22303800E+02</rscale>
<asrwt>0</asrwt>
<pdfrwt beam="1">  1       21 0.11657049E-01 0.22303800E+02</pdfrwt>
<pdfrwt beam="2">  1       21 0.10236882E-02 0.22303800E+02</pdfrwt>
<totfact> 0.14798781E+08</totfact>
</mgrwt>
</event>
<event>
 4    1  0.7499963E+004  0.2118700E+02  0.7546771E-02  0.1722704E+00
         21   -1    0    0  503  502  0.00000000000E+00  0.00000000000E+00  0.47650071309E+01  0.47650071309E+01  0.00000000000E+00 0.  1.
         21   -1    0    0  501  503 -0.00000000000E+00 -0.00000000000E+00 -0.98028061903E+02  0.98028061903E+02  0.00000000000E+00 0.  1.
          5    1    1    2  501    0 -0.10183014053E+02 -0.18579425178E+02 -0.56781119237E+02  0.60605150911E+02  0.00000000000E+00 0.  1.
         -5    1    1    2    0  502  0.10183014053E+02  0.18579425178E+02 -0.36481935534E+02  0.42187918122E+02  0.00000000000E+00 0. -1.
<mgrwt>
<rscale>  2 0.21186996E+02</rscale>
<asrwt>0</asrwt>
<pdfrwt beam="1">  1       21 0.73307814E-03 0.21186996E+02</pdfrwt>
<pdfrwt beam="2">  1       21 0.15081238E-01 0.21186996E+02</pdfrwt>
<totfact> 0.15553284E+08</totfact>
</mgrwt>
</event>
<event>
 4    1  0.7499963E+004  0.2325899E+02  0.7546771E-02  0.1687346E+00
         21   -1    0    0  501  502  0.00000000000E+00  0.00000000000E+00  0.17203599674E+02  0.17203599674E+02  0.00000000000E+00 0. -1.
         21   -1    0    0  502  503 -0.00000000000E+00 -0.00000000000E+00 -0.32659471105E+02  0.32659471105E+02  0.00000000000E+00 0. -1.
          2    1    1    2  501    0 -0.23246537992E+02  0.76100712677E+00 -0.29217780140E+01  0.23441788482E+02  0.00000000000E+00 0.  1.
         -2    1    1    2    0  503  0.23246537992E+02 -0.76100712677E+00 -0.12534093416E+02  0.26421282297E+02  0.00000000000E+00 0. -1.
<mgrwt>
<rscale>  2 0.23258991E+02</rscale>
<asrwt>0</asrwt>
<pdfrwt beam="1">  1       21 0.26467077E-02 0.23258991E+02</pdfrwt>
<pdfrwt beam="2">  1       21 0.50245340E-02 0.23258991E+02</pdfrwt>
<totfact> 0.13863210E+08</totfact>
</mgrwt>
</event>
<event>
 4    1  0.7499963E+004  0.2453097E+02  0.7546771E-02  0.1667832E+00
         21   -1    0    0  503  502  0.00000000000E+00  0.00000000000E+00  0.99791513784E+03  0.99791513784E+03  0.00000000000E+00 0. -1.
         21   -1    0    0  501  503 -0.00000000000E+00 -0.00000000000E+00 -0.60782164549E+00  0.60782164549E+00  0.00000000000E+00 0. -1.
          1    1    1    2  501    0 -0.16510322784E+02  0.18143251881E+02  0.54300256025E+03  0.54355638970E+03  0.00000000000E+00 0. -1.
         -1    1    1    2    0  502  0.16510322784E+02 -0.18143251881E+02  0.45430475594E+03  0.45496656978E+03  0.00000000000E+00 0.  1.
<mgrwt>
<rscale>  2 0.24530967E+02</rscale>
<asrwt>0</asrwt>
<pdfrwt beam="1">  1       21 0.15352410E+00 0.24530967E+02</pdfrwt>
<pdfrwt beam="2">  1       21 0.93511821E-04 0.24530967E+02</pdfrwt>
<totfact> 0.33272875E+07</totfact>
</mgrwt>
</event>
<event>
 4    1  0.7499963E+004  0.3233716E+02  0.7546771E-02  0.1573604E+00
         21   -1    0    0  501  502  0.00000000000E+00  0.00000000000E+00  0.11439134175E+03  0.11439134175E+03  0.00000000000E+00 0. -1.
         21   -1    0    0  502  503 -0.00000000000E+00 -0.00000000000E+00 -0.93388546572E+01  0.93388546572E+01  0.00000000000E+00 0. -1.
          2    1    1    2  501    0 -0.32337087242E+02 -0.67220765008E-01  0.43529541060E+02  0.54226494215E+02  0.00000000000E+00 0. -1.
         -2    1    1    2    0  503  0.32337087242E+02  0.67220765008E-01  0.61522946038E+02  0.69503702197E+02  0.00000000000E+00 0.  1.
<mgrwt>
<rscale>  2 0.32337157E+02</rscale>
<asrwt>0</asrwt>
<pdfrwt beam="1">  1       21 0.17598667E-01 0.32337157E+02</pdfrwt>
<pdfrwt beam="2">  1       21 0.14367470E-02 0.32337157E+02</pdfrwt>
<totfact> 0.48054013E+07</totfact>
</mgrwt>
</event>
<event>
 4    1  0.7499963E+004  0.2635173E+02  0.7546771E-02  0.1642313E+00
         21   -1    0    0  501  502  0.00000000000E+00  0.00000000000E+00  0.85228128698E+01  0.85228128698E+01  0.00000000000E+00 0. -1.
         21   -1    0    0  502  503 -0.00000000000E+00 -0.00000000000E+00 -0.12233622884E+03  0.12233622884E+03  0.00000000000E+00 0. -1.
          4    1    1    2  501    0 -0.21285740283E+02  0.15534835522E+02 -0.19093729669E+02  0.32542039991E+02  0.00000000000E+00 0. -1.
         -4    1    1    2    0  503  0.21285740283E+02 -0.15534835522E+02 -0.94719686306E+02  0.98317001724E+02  0.00000000000E+00 0.  1.
<mgrwt>
<rscale>  2 0.26351733E+02</rscale>
<asrwt>0</asrwt>
<pdfrwt beam="1">  1       21 0.13112020E-02 0.26351733E+02</pdfrwt>
<pdfrwt beam="2">  1       21 0.18820959E-01 0.26351733E+02</pdfrwt>
<totfact> 0.47000677E+07</totfact>
</mgrwt>
</event>
<event>
 4    1  0.7499963E+004  0.2701544E+02  0.7546771E-02  0.1633634E+00
         21   -1    0    0  503  502  0.00000000000E+00  0.00000000000E+00  0.55340631134E+01  0.55340631134E+01  0.00000000000E+00 0.  1.
         21   -1    0    0  501  503 -0.00000000000E+00 -0.00000000000E+00 -0.16078019053E+03  0.16078019053E+03  0.00000000000E+00 0.  1.
          1    1    1    2  501    0  0.24524117552E+02 -0.11331442722E+02 -0.11287891949E+03  0.11606672392E+03  0.00000000000E+00 0. -1.
         -1    1    1    2    0  502 -0.24524117552E+02  0.11331442722E+02 -0.42367207918E+02  0.50247529716E+02  0.00000000000E+00 0.  1.
<mgrwt>
<rscale>  2 0.27015439E+02</rscale>
<asrwt>0</asrwt>
<pdfrwt beam="1">  1       21 0.85139445E-03 0.27015439E+02</pdfrwt>
<pdfrwt beam="2">  1       21 0.24735410E-01 0.27015439E+02</pdfrwt>
<totfact> 0.56010161E+07</totfact>
</mgrwt>
</event>
<event>
 4    1  0.7499963E+004  0.2738022E+02  0.7546771E-02  0.1628994E+00
         21   -1    0    0  503  502  0.00000000000E+00  0.00000000000E+00  0.38011508827E+03  0.38011508827E+03  0.00000000000E+00 0. -1.
         21   -1    0    0  501  503 -0.00000000000E+00 -0.00000000000E+00 -0.19759980064E+01  0.19759980064E+01  0.00000000000E+00 0. -1.
          1    1    1    2  501    0 -0.25544062062E+02 -0.98578668680E+01  0.18073358242E+03  0.18279579990E+03  0.00000000000E+00 0. -1.
         -1    1    1    2    0  502  0.25544062062E+02  0.98578668680E+01  0.19740550785E+03  0.19929528638E+03  0.00000000000E+00 0.  1.
<mgrwt>
<rscale>  2 0.27380224E+02</rscale>
<asrwt>0</asrwt>
<pdfrwt beam="1">  1       21 0.58479186E-01 0.27380224E+02</pdfrwt>
<pdfrwt beam="2">  1       21 0.30400000E-03 0.27380224E+02</pdfrwt>
<totfact> 0.50943514E+07</totfact>
</mgrwt>
</event>
<event>
 4    1  0.7499963E+004  0.2296635E+02  0.7546771E-02  0.1692056E+00
         21   -1    0    0  503  502  0.00000000000E+00  0.00000000000E+00  0.76235383784E+01  0.76235383784E+01  0.00000000000E+00 0. -1.
         21   -1    0    0  501  503 -0.00000000000E+00 -0.00000000000E+00 -0.79888080258E+02  0.79888080258E+02  0.00000000000E+00 0. -1.
          4    1    1    2  501    0  0.13837489280E+02  0.18329676278E+02 -0.20118282536E+02  0.30531924836E+02  0.00000000000E+00 0.  1.
         -4    1    1    2    0  502 -0.13837489280E+02 -0.18329676278E+02 -0.52146259344E+02  0.56979693801E+02  0.00000000000E+00 0. -1.
<mgrwt>
<rscale>  2 0.22966348E+02</rscale>
<asrwt>0</asrwt>
<pdfrwt beam="1">  1       21 0.11728522E-02 0.22966348E+02</pdfrwt>
<pdfrwt beam="2">  1       21 0.12290473E-01 0.22966348E+02</pdfrwt>
<totfact> 0.11132687E+08</totfact>
</mgrwt>
</event>
<event>
 4    1  0.7499963E+004  0.2137449E+02  0.7546771E-02  0.1719300E+00
         21   -1    0    0  501  502  0.00000000000E+00  0.00000000000E+00  0.28388762380E+03  0.28388762380E+03  0.00000000000E+00 0. -1.
         21   -1    0    0  502  503 -0.00000000000E+00 -0.00000000000E+00 -0.27243100958E+01  0.27243100958E+01  0.00000000000E+00 0. -1.
          2    1    1    2  501    0 -0.17696763671E+00 -0.21373753717E+02  0.48902691952E+02  0.53369859900E+02  0.00000000000E+00 0. -1.
         -2    1    1    2    0  503  0.17696763671E+00  0.21373753717E+02  0.23226062176E+03  0.23324207400E+03  0.00000000000E+00 0.  1.
<mgrwt>
<rscale>  2 0.21374486E+02</rscale>
<asrwt>0</asrwt>
<pdfrwt beam="1">  1       21 0.43674996E-01 0.21374486E+02</pdfrwt>
<pdfrwt beam="2">  1       21 0.41912485E-03 0.21374486E+02</pdfrwt>
<totfact> 0.53147397E+07</totfact>
</mgrwt>
</event>
<event>
 4    1  0.7499963E+004  0.2129450E+02  0.7546771E-02  0.1720747E+00
         21   -1    0    0  501  502  0.00000000000E+00  0.00000000000E+00  0.57882659263E+02  0.57882659263E+02  0.00000000000E+00 0.  1.
         21   -1    0    0  502  503 -0.00000000000E+00 -0.00000000000E+00 -0.92287863358E+01  0.92287863358E+01  0.00000000000E+00 0.  1.
          2    1    1    2  501    0 -0.59756620961E+01 -0.20438862439E+02  0.11282047373E+02  0.24098552409E+02  0.00000000000E+00 0.  1.
         -2    1    1    2    0  503  0.59756620961E+01  0.20438862439E+02  0.37371825553E+02  0.43012893189E+02  0.00000000000E+00 0. -1.
<mgrwt>
<rscale>  2 0.21294498E+02</rscale>
<asrwt>0</asrwt>
<pdfrwt beam="1">  1       21 0.89050243E-02 0.21294498E+02</pdfrwt>
<pdfrwt beam="2">  1       21 0.14198133E-02 0.21294498E+02</pdfrwt>
<totfact> 0.13910302E+08</totfact>
</mgrwt>
</event>
<event>
 4    1  0.7499963E+004  0.2344650E+02  0.7546771E-02  0.1684373E+00
         21   -1    0    0  503  502  0.00000000000E+00  0.00000000000E+00  0.17248024684E+02  0.17248024684E+02  0.00000000000E+00 0. -1.
         21   -1    0    0  501  503 -0.00000000000E+00 -0.00000000000E+00 -0.33503010325E+02  0.33503010325E+02  0.00000000000E+00 0. -1.
          2    1    1    2  501    0  0.10370440174E+02 -0.21028373769E+02 -0.25295548491E+01  0.23582560940E+02  0.00000000000E+00 0.  1.
         -2    1    1    2    0  502 -0.10370440174E+02  0.21028373769E+02 -0.13725430792E+02  0.27168474068E+02  0.00000000000E+00 0. -1.
<mgrwt>
<rscale>  2 0.23446504E+02</rscale>
<asrwt>0</asrwt>
<pdfrwt beam="1">  1       21 0.26535423E-02 0.23446504E+02</pdfrwt>
<pdfrwt beam="2">  1       21 0.51543093E-02 0.23446504E+02</pdfrwt>
<totfact> 0.13289716E+08</totfact>
</mgrwt>
</event>
<event>
 4    1  0.7499963E+004  0.2094722E+02  0.7546771E-02  0.1727122E+00
         21   -1    0    0  501  502  0.00000000000E+00  0.00000000000E+00  0.58465313129E+00  0.58465313129E+00  0.00000000000E+00 0.  1.
         21   -1    0    0  502  503 -0.00000000000E+00 -0.00000000000E+00 -0.82041389818E+03  0.82041389818E+03  0.00000000000E+00 0.  1.
          3    1    1    2  501    0  0.14900534420E+02 -0.14722771627E+02 -0.52974245363E+03  0.53015644211E+03  0.00000000000E+00 0. -1.
         -3    1    1    2    0  503 -0.14900534420E+02  0.14722771627E+02 -0.29008679142E+03  0.29084210920E+03  0.00000000000E+00 0.  1.
<mgrwt>
<rscale>  2 0.20947218E+02</rscale>
<asrwt>0</asrwt>
<pdfrwt beam="1">  1       21 0.89946690E-04 0.20947218E+02</pdfrwt>
<pdfrwt beam="2">  1       21 0.12621745E+00 0.20947218E+02</pdfrwt>
<totfact> 0.53786938E+07</totfact>
</mgrwt>
</event>
<event>
 4    1  0.7499963E+004  0.3102236E+02  0.7546771E-02  0.1587055E+00
         21   -1    0    0  503  502  0.00000000000E+00  0.00000000000E+00  0.10781170266E+03  0.10781170266E+03  0.00000000000E+00 0.  1.
         21   -1    0    0  501  503 -0.00000000000E+00 -0.00000000000E+00 -0.90934582353E+01  0.90934582353E+01  0.00000000000E+00 0.  1.
          5    1    1    2  501    0  0.76912154453E+01 -0.30053820889E+02  0.57278176463E+02  0.65139668744E+02  0.00000000000E+00 0. -1.
         -5    1    1    2    0  502 -0.76912154453E+01  0.30053820889E+02  0.41440067960E+02  0.51765492151E+02  0.00000000000E+00 0.  1.
<mgrwt>
<rscale>  2 0.31022362E+02</rscale>
<asrwt>0</asrwt>
<pdfrwt beam="1">  1       21 0.16586415E-01 0.31022362E+02</pdfrwt>
<pdfrwt beam="2">  1       21 0.13989937E-02 0.31022362E+02</pdfrwt>
<totfact> 0.55021139E+07</totfact>
</mgrwt>
</event>
<event>
 4    1  0.7499963E+004  0.2054117E+02  0.7546771E-02  0.1734776E+00
         21   -1    0    0  503  502  0.00000000000E+00  0.00000000000E+00  0.32355218145E+02  0.32355218145E+02  0.00000000000E+00 0. -1.
         21   -1    0    0  501  503 -0.00000000000E+00 -0.00000000000E+00 -0.13941873288E+02  0.13941873288E+02  0.00000000000E+00 0. -1.
          2    1    1    2  501    0  0.39600432354E+01 -0.20155831580E+02  0.15091470731E+02  0.25489056043E+02  0.00000000000E+00 0. -1.
         -2    1    1    2    0  502 -0.39600432354E+01  0.20155831580E+02  0.33218741254E+01  0.20808035391E+02  0.00000000000E+00 0.  1.
<mgrwt>
<rscale>  2 0.20541166E+02</rscale>
<asrwt>0</asrwt>
<pdfrwt beam="1">  1       21 0.49777259E-02 0.20541166E+02</pdfrwt>
<pdfrwt beam="2">  1       21 0.21449036E-02 0.20541166E+02</pdfrwt>
<totfact> 0.18718260E+08</totfact>
</mgrwt>
</event>
<event>
 4    1  0.7499963E+004  0.3243117E+02  0.7546771E-02  0.1572672E+00
         21   -1    0    0  503  502  0.00000000000E+00  0.00000000000E+00  0.23997641873E+02  0.23997641873E+02  0.00000000000E+00 0.  1.
         21   -1    0    0  501  503 -0.00000000000E+00 -0.00000000000E+00 -0.46313596141E+02  0.46313596141E+02  0.00000000000E+00 0.  1.
          1    1    1    2  501    0  0.25214670110E+02 -0.20396108315E+02 -0.30144705358E+01  0.32570966454E+02  0.00000000000E+00 0.  1.
         -1    1    1    2    0  502 -0.25214670110E+02  0.20396108315E+02 -0.19301483732E+02  0.37740271560E+02  0.00000000000E+00 0. -1.
<mgrwt>
<rscale>  2 0.32431171E+02</rscale>
<asrwt>0</asrwt>
<pdfrwt beam="1">  1       21 0.36919449E-02 0.32431171E+02</pdfrwt>
<pdfrwt beam="2">  1       21 0.71251686E-02 0.32431171E+02</pdfrwt>
<totfact> 0.50830025E+07</totfact>
</mgrwt>
</event>
<event>
 4    1  0.7499963E+004  0.2424946E+02  0.7546771E-02  0.1672022E+00
         21   -1    0    0  501  502  0.00000000000E+00  0.00000000000E+00  0.28808913605E+02  0.28808913605E+02  0.00000000000E+00 0.  1.
         21   -1    0    0  502  503 -0.00000000000E+00 -0.00000000000E+00 -0.21689797483E+02  0.21689797483E+02  0.00000000000E+00 0.  1.
          1    1    1    2  501    0  0.20859233229E+02  0.12366438279E+02 -0.25698601473E+01  0.24385253490E+02  0.00000000000E+00 0. -1.
         -1    1    1    2    0  503 -0.20859233229E+02 -0.12366438279E+02  0.96889762693E+01  0.26113457598E+02  0.00000000000E+00 0.  1.
<mgrwt>
<rscale>  2 0.24249462E+02</rscale>
<asrwt>0</asrwt>
<pdfrwt beam="1">  1       21 0.44321405E-02 0.24249462E+02</pdfrwt>
<pdfrwt beam="2">  1       21 0.33368919E-02 0.24249462E+02</pdfrwt>
<totfact> 0.11939741E+08</totfact>
</mgrwt>
</event>
<event>
 4    1  0.7499963E+004  0.2112042E+02  0.7546771E-02  0.1723923E+00
         21   -1    0    0  503  502  0.00000000000E+00  0.00000000000E+00  0.50023012077E+01  0.50023012077E+01  0.00000000000E+00 0. -1.
         21   -1    0    0  501  503 -0.00000000000E+00 -0.00000000000E+00 -0.95242062523E+02  0.95242062523E+02  0.00000000000E+00 0. -1.
          4    1    1    2  501    0  0.99936789669E+01  0.18606406183E+02 -0.57772013844E+02  0.61511605035E+02  0.00000000000E+00 0. -1.
         -4    1    1    2    0  502 -0.99936789669E+01 -0.18606406183E+02 -0.32467747471E+02  0.38732758696E+02  0.00000000000E+00 0.  1.
<mgrwt>
<rscale>  2 0.21120416E+02</rscale>
<asrwt>0</asrwt>
<pdfrwt beam="1">  1       21 0.76958482E-03 0.21120416E+02</pdfrwt>
<pdfrwt beam="2">  1       21 0.14652625E-01 0.21120416E+02</pdfrwt>
<totfact> 0.15180148E+08</totfact>
</mgrwt>
</event>
<event>
 4    1  0.7499963E+004  0.2219020E+02  0.7546771E-02  0.1704983E+00
         21   -1    0    0  501  502  0.00000000000E+00  0.00000000000E+00  0.27017763409E+01  0.27017763409E+01  0.00000000000E+00 0.  1.
         21   -1    0    0  502  503 -0.00000000000E+00 -0.00000000000E+00 -0.20611099626E+03  0.20611099626E+03  0.00000000000E+00 0.  1.
          3    1    1    2  501    0  0.48628036418E+01 -0.21650823859E+02 -0.66182433700E+02  0.69803435184E+02  0.00000000000E+00 0. -1.
         -3    1    1    2    0  503 -0.48628036418E+01  0.21650823859E+02 -0.13722678622E+03  0.13900933742E+03  0.00000000000E+00 0.  1.
<mgrwt>
<rscale>  2 0.22190201E+02</rscale>
<asrwt>0</asrwt>
<pdfrwt beam="1">  1       21 0.41565803E-03 0.22190201E+02</pdfrwt>
<pdfrwt beam="2">  1       21 0.31709374E-01 0.22190201E+02</pdfrwt>
<totfact> 0.98625539E+07</totfact>
</mgrwt>
</event>
<event>
 4    1  0.7499963E+004  0.6662857E+02  0.7546771E-02  0.1371948E+00
         21   -1    0    0  501  502  0.00000000000E+00  0.00000000000E+00  0.15026849859E+03  0.15026849859E+03  0.00000000000E+00 0.  1.
         21   -1    0    0  502  503 -0.00000000000E+00 -0.00000000000E+00 -0.32910048735E+02  0.32910048735E+02  0.00000000000E+00 0.  1.
          5    1    1    2  501    0  0.65198193813E+02  0.13731767523E+02  0.87975477096E+02  0.11035873543E+03  0.00000000000E+00 0.  1.
         -5    1    1    2    0  503 -0.65198193813E+02 -0.13731767523E+02  0.29382972756E+02  0.72819811891E+02  0.00000000000E+00 0. -1.
<mgrwt>
<rscale>  2 0.66628567E+02</rscale>
<asrwt>0</asrwt>
<pdfrwt beam="1">  1       21 0.23118230E-01 0.66628567E+02</pdfrwt>
<pdfrwt beam="2">  1       21 0.50630845E-02 0.66628567E+02</pdfrwt>
<totfact> 0.43885202E+06</totfact>
</mgrwt>
</event>
<event>
 4    1  0.7499963E+004  0.2409267E+02  0.7546771E-02  0.1674387E+00
         21   -1    0    0  501  502  0.00000000000E+00  0.00000000000E+00  0.25723074971E+01  0.25723074971E+01  0.00000000000E+00 0. -1.
         21   -1    0    0  502  503 -0.00000000000E+00 -0.00000000000E+00 -0.23444049038E+03  0.23444049038E+03  0.00000000000E+00 0. -1.
          1    1    1    2  501    0  0.23785397103E+02  0.38355682923E+01 -0.13887354236E+03  0.14094792466E+03  0.00000000000E+00 0.  1.
         -1    1    1    2    0  503 -0.23785397103E+02 -0.38355682923E+01 -0.92994640523E+02  0.96064873213E+02  0.00000000000E+00 0. -1.
<mgrwt>
<rscale>  2 0.24092669E+02</rscale>
<asrwt>0</asrwt>
<pdfrwt beam="1">  1       21 0.39573960E-03 0.24092669E+02</pdfrwt>
<pdfrwt beam="2">  1       21 0.36067769E-01 0.24092669E+02</pdfrwt>
<totfact> 0.85411774E+07</totfact>
</mgrwt>
</event>
<event>
 4    1  0.7499963E+004  0.2137053E+02  0.7546771E-02  0.1719371E+00
         21   -1    0    0  503  502  0.00000000000E+00  0.00000000000E+00  0.75892158571E+03  0.75892158571E+03  0.00000000000E+00 0. -1.
         21   -1    0    0  501  503 -0.00000000000E+00 -0.00000000000E+00 -0.64139490611E+00  0.64139490611E+00  0.00000000000E+00 0. -1.
          2    1    1    2  501    0  0.96849721953E+01  0.19049961957E+02  0.47353095272E+03  0.47401293539E+03  0.00000000000E+00 0.  1.
         -2    1    1    2    0  502 -0.96849721953E+01 -0.19049961957E+02  0.28474923809E+03  0.28555004522E+03  0.00000000000E+00 0. -1.
<mgrwt>
<rscale>  2 0.21370534E+02</rscale>
<asrwt>0</asrwt>
<pdfrwt beam="1">  1       21 0.11675645E+00 0.21370534E+02</pdfrwt>
<pdfrwt beam="2">  1       21 0.98676747E-04 0.21370534E+02</pdfrwt>
<totfact> 0.56510118E+07</totfact>
</mgrwt>
</event>
<event>
 4    1  0.7499963E+004  0.2445423E+02  0.7546771E-02  0.1668967E+00
         21   -1    0    0  501  502  0.00000000000E+00  0.00000000000E+00  0.22016232702E+01  0.22016232702E+01  0.00000000000E+00 0.  1.
         21   -1    0    0  502  503 -0.00000000000E+00 -0.00000000000E+00 -0.31982779547E+03  0.31982779547E+03  0.00000000000E+00 0.  1.
          1    1    1    2  501    0  0.14787282230E+02  0.19476800897E+02 -0.22132412592E+03  0.22267100889E+03  0.00000000000E+00 0. -1.
         -1    1    1    2    0  503 -0.14787282230E+02 -0.19476800897E+02 -0.96302046282E+02  0.99358409845E+02  0.00000000000E+00 0.  1.
<mgrwt>
<rscale>  2 0.24454233E+02</rscale>
<asrwt>0</asrwt>
<pdfrwt beam="1">  1       21 0.33871130E-03 0.24454233E+02</pdfrwt>
<pdfrwt beam="2">  1       21 0.49204272E-01 0.24454233E+02</pdfrwt>
<totfact> 0.59648521E+07</totfact>
</mgrwt>
</event>
<event>
 4    1  0.7499963E+004  0.2024183E+02  0.7546771E-02  0.1740561E+00
         21   -1    0    0  501  502  0.00000000000E+00  0.00000000000E+00  0.39869985790E+01  0.39869985790E+01  0.00000000000E+00 0.  1.
         21   -1    0    0  502  503 -0.00000000000E+00 -0.00000000000E+00 -0.12998282122E+03  0.12998282122E+03  0.00000000000E+00 0.  1.
          1    1    1    2  501    0 -0.11018994435E+02 -0.16979794277E+02 -0.32346873647E+02  0.38158247952E+02  0.00000000000E+00 0.  1.
         -1    1    1    2    0  503  0.11018994435E+02  0.16979794277E+02 -0.93648948994E+02  0.95811571847E+02  0.00000000000E+00 0. -1.
<mgrwt>
<rscale>  2 0.20241829E+02</rscale>
<asrwt>0</asrwt>
<pdfrwt beam="1">  1       21 0.61338437E-03 0.20241829E+02</pdfrwt>
<pdfrwt beam="2">  1       21 0.19997358E-01 0.20241829E+02</pdfrwt>
<totfact> 0.12311837E+08</totfact>
</mgrwt>
</event>
<event>
 4    1  0.7499963E+004  0.3070236E+02  0.7546771E-02  0.1590452E+00
         21   -1    0    0  501  502  0.00000000000E+00  0.00000000000E+00  0.32480975201E+01  0.32480975201E+01  0.00000000000E+00 0. -1.
         21   -1    0    0  502  503 -0.00000000000E+00 -0.00000000000E+00 -0.35224121637E+03  0.35224121637E+03  0.00000000000E+00 0. -1.
          2    1    1    2  501    0  0.28939083165E+02 -0.10254961728E+02 -0.99907199149E+02  0.10451833914E+03  0.00000000000E+00 0.  1.
         -2    1    1    2    0  503 -0.28939083165E+02  0.10254961728E+02 -0.24908591971E+03  0.25097097476E+03  0.00000000000E+00 0. -1.
<mgrwt>
<rscale>  2 0.30702358E+02</rscale>
<asrwt>0</asrwt>
<pdfrwt beam="1">  1       21 0.49970733E-03 0.30702358E+02</pdfrwt>
<pdfrwt beam="2">  1       21 0.54190954E-01 0.30702358E+02</pdfrwt>
<totfact> 0.29112678E+07</totfact>
</mgrwt>
</event>
<event>
 4    1  0.7499963E+004  0.2017914E+02  0.7546771E-02  0.1741789E+00
         21   -1    0    0  501  502  0.00000000000E+00  0.00000000000E+00  0.35223906083E+02  0.35223906083E+02  0.00000000000E+00 0.  1.
         21   -1    0    0  502  503 -0.00000000000E+00 -0.00000000000E+00 -0.11784705136E+02  0.11784705136E+02  0.00000000000E+00 0.  1.
          2    1    1    2  501    0  0.56968798987E+01  0.19358283727E+02  0.14963303241E+02  0.25121664621E+02  0.00000000000E+00 0. -1.
         -2    1    1    2    0  503 -0.56968798987E+01 -0.19358283727E+02  0.84758977064E+01  0.21886946598E+02  0.00000000000E+00 0.  1.
<mgrwt>
<rscale>  2 0.20179137E+02</rscale>
<asrwt>0</asrwt>
<pdfrwt beam="1">  1       21 0.54190624E-02 0.20179137E+02</pdfrwt>
<pdfrwt beam="2">  1       21 0.18130316E-02 0.20179137E+02</pdfrwt>
<totfact> 0.21020564E+08</totfact>
</mgrwt>
</event>
<event>
 4    1  0.7499963E+004  0.2519646E+02  0.7546771E-02  0.1658196E+00
         21   -1    0    0  501  502  0.00000000000E+00  0.00000000000E+00  0.20105786187E+03  0.20105786187E+03  0.00000000000E+00 0. -1.
         21   -1    0    0  502  503 -0.00000000000E+00 -0.00000000000E+00 -0.32963152100E+01  0.32963152100E+01  0.00000000000E+00 0. -1.
          2    1    1    2  501    0 -0.11006817906E+02  0.22665204241E+02  0.11984079400E+03  0.12246092206E+03  0.00000000000E+00 0.  1.
         -2    1    1    2    0  503  0.11006817906E+02 -0.22665204241E+02  0.77920752658E+02  0.81893255025E+02  0.00000000000E+00 0. -1.
<mgrwt>
<rscale>  2 0.25196459E+02</rscale>
<asrwt>0</asrwt>
<pdfrwt beam="1">  1       21 0.30931969E-01 0.25196459E+02</pdfrwt>
<pdfrwt beam="2">  1       21 0.50712557E-03 0.25196459E+02</pdfrwt>
<totfact> 0.79576306E+07</totfact>
</mgrwt>
</event>
<event>
 4    1  0.7499963E+004  0.2018463E+02  0.7546771E-02  0.1741681E+00
         21   -1    0    0  501  502  0.00000000000E+00  0.00000000000E+00  0.25032159951E+02  0.25032159951E+02  0.00000000000E+00 0.  1.
         21   -1    0    0  502  503 -0.00000000000E+00 -0.00000000000E+00 -0.16780292698E+02  0.16780292698E+02  0.00000000000E+00 0.  1.
          3    1    1    2  501    0  0.19401379679E+02 -0.55682926507E+01  0.77507527630E+01  0.21621599961E+02  0.00000000000E+00 0.  1.
         -3    1    1    2    0  503 -0.19401379679E+02  0.55682926507E+01  0.50111448991E+00  0.20190852687E+02  0.00000000000E+00 0. -1.
<mgrwt>
<rscale>  2 0.20184633E+02</rscale>
<asrwt>0</asrwt>
<pdfrwt beam="1">  1       21 0.38511015E-02 0.20184633E+02</pdfrwt>
<pdfrwt beam="2">  1       21 0.25815835E-02 0.20184633E+02</pdfrwt>
<totfact> 0.20972556E+08</totfact>
</mgrwt>
</event>
<event>
 4    1  0.7499963E+004  0.2106632E+02  0.7546771E-02  0.1724918E+00
         21   -1    0    0  503  502  0.00000000000E+00  0.00000000000E+00  0.68368941313E+03  0.68368941313E+03  0.00000000000E+00 0. -1.
         21   -1    0    0  501  503 -0.00000000000E+00 -0.00000000000E+00 -0.83549227808E+00  0.83549227808E+00  0.00000000000E+00 0. -1.
          3    1    1    2  501    0 -0.11727031825E+02 -0.17500473101E+02  0.17977163864E+03  0.18100174555E+03  0.00000000000E+00 0.  1.
         -3    1    1    2    0  502  0.11727031825E+02  0.17500473101E+02  0.50308228221E+03  0.50352315985E+03  0.00000000000E+00 0. -1.
<mgrwt>
<rscale>  2 0.21066320E+02</rscale>
<asrwt>0</asrwt>
<pdfrwt beam="1">  1       21 0.10518254E+00 0.21066320E+02</pdfrwt>
<pdfrwt beam="2">  1       21 0.12853782E-03 0.21066320E+02</pdfrwt>
<totfact> 0.48747339E+07</totfact>
</mgrwt>
</event>
<event>
 4    1  0.7499963E+004  0.4076901E+02  0.7546771E-02  0.1502627E+00
         21   -1    0    0  501  502  0.00000000000E+00  0.00000000000E+00  0.13569034483E+02  0.13569034483E+02  0.00000000000E+00 0. -1.
         21   -1    0    0  502  503 -0.00000000000E+00 -0.00000000000E+00 -0.12298494562E+03  0.12298494562E+03  0.00000000000E+00 0. -1.
          5    1    1    2  501    0 -0.26203178780E+02 -0.31233087534E+02 -0.59026004982E+02  0.71736891480E+02  0.00000000000E+00 0.  1.
         -5    1    1    2    0  503  0.26203178780E+02  0.31233087534E+02 -0.50389906155E+02  0.64817088622E+02  0.00000000000E+00 0. -1.
<mgrwt>
<rscale>  2 0.40769012E+02</rscale>
<asrwt>0</asrwt>
<pdfrwt beam="1">  1       21 0.20875438E-02 0.40769012E+02</pdfrwt>
<pdfrwt beam="2">  1       21 0.18920761E-01 0.40769012E+02</pdfrwt>
<totfact> 0.24725729E+07</totfact>
</mgrwt>
</event>
<event>
 4    1  0.7499963E+004  0.2479343E+02  0.7546771E-02  0.1663987E+00
         21   -1    0    0  501  502  0.00000000000E+00  0.00000000000E+00  0.11249542470E+01  0.11249542470E+01  0.00000000000E+00 0.  1.
         21   -1    0    0  502  503 -0.00000000000E+00 -0.00000000000E+00 -0.58359248360E+03  0.58359248360E+03  0.00000000000E+00 0.  1.
          2    1    1    2  501    0 -0.20569399813E+01 -0.24707960225E+02 -0.36500460558E+03  0.36584570026E+03  0.00000000000E+00 0.  1.
         -2    1    1    2    0  503  0.20569399813E+01  0.24707960225E+02 -0.21746292377E+03  0.21887173759E+03  0.00000000000E+00 0. -1.
<mgrwt>
<rscale>  2 0.24793433E+02</rscale>
<asrwt>0</asrwt>
<pdfrwt beam="1">  1       21 0.17306941E-03 0.24793433E+02</pdfrwt>
<pdfrwt beam="2">  1       21 0.89783703E-01 0.24793433E+02</pdfrwt>
<totfact> 0.46511561E+07</totfact>
</mgrwt>
</event>
<event>
 4    1  0.7499963E+004  0.2013762E+02  0.7546771E-02  0.1742605E+00
         21   -1    0    0  503  502  0.00000000000E+00  0.00000000000E+00  0.55299335392E+02  0.55299335392E+02  0.00000000000E+00 0.  1.
         21   -1    0    0  501  503 -0.00000000000E+00 -0.00000000000E+00 -0.86256507644E+01  0.86256507644E+01  0.00000000000E+00 0.  1.
          1    1    1    2  501    0 -0.90161524328E+01  0.18006459178E+02  0.35708963027E+02  0.40995775603E+02  0.00000000000E+00 0. -1.
         -1    1    1    2    0  502  0.90161524328E+01 -0.18006459178E+02  0.10964721600E+02  0.22929210553E+02  0.00000000000E+00 0.  1.
<mgrwt>
<rscale>  2 0.20137616E+02</rscale>
<asrwt>0</asrwt>
<pdfrwt beam="1">  1       21 0.85075898E-02 0.20137616E+02</pdfrwt>
<pdfrwt beam="2">  1       21 0.13270232E-02 0.20137616E+02</pdfrwt>
<totfact> 0.16312497E+08</totfact>
</mgrwt>
</event>
<event>
 4    1  0.7499963E+004  0.3863417E+02  0.7546771E-02  0.1518510E+00
         21   -1    0    0  503  502  0.00000000000E+00  0.00000000000E+00  0.53753424978E+01  0.53753424978E+01  0.00000000000E+00 0.  1.
         21   -1    0    0  501  503 -0.00000000000E+00 -0.00000000000E+00 -0.27866915798E+03  0.27866915798E+03  0.00000000000E+00 0.  1.
          1    1    1    2  501    0  0.26758306006E+02 -0.27867403719E+02 -0.14512899961E+03  0.15018330685E+03  0.00000000000E+00 0.  1.
         -1    1    1    2    0  502 -0.26758306006E+02  0.27867403719E+02 -0.12816481587E+03  0.13386119362E+03  0.00000000000E+00 0. -1.
<mgrwt>
<rscale>  2 0.38634171E+02</rscale>
<asrwt>0</asrwt>
<pdfrwt beam="1">  1       21 0.82697544E-03 0.38634171E+02</pdfrwt>
<pdfrwt beam="2">  1       21 0.42872195E-01 0.38634171E+02</pdfrwt>
<totfact> 0.22481373E+07</totfact>
</mgrwt>
</event>
<event>
 4    1  0.7499963E+004  0.2723971E+02  0.7546771E-02  0.1630771E+00
         21   -1    0    0  501  502  0.00000000000E+00  0.00000000000E+00  0.48319728518E+02  0.48319728518E+02  0.00000000000E+00 0. -1.
         21   -1    0    0  502  503 -0.00000000000E+00 -0.00000000000E+00 -0.15682119689E+02  0.15682119689E+02  0.00000000000E+00 0. -1.
          3    1    1    2  501    0  0.27675011647E+01 -0.27098759832E+02  0.20932959601E+02  0.34353902905E+02  0.00000000000E+00 0. -1.
         -3    1    1    2    0  503 -0.27675011647E+01  0.27098759832E+02  0.11704649227E+02  0.29647945302E+02  0.00000000000E+00 0.  1.
<mgrwt>
<rscale>  2 0.27239711E+02</rscale>
<asrwt>0</asrwt>
<pdfrwt beam="1">  1       21 0.74338043E-02 0.27239711E+02</pdfrwt>
<pdfrwt beam="2">  1       21 0.24126338E-02 0.27239711E+02</pdfrwt>
<totfact> 0.88838658E+07</totfact>
</mgrwt>
</event>
<event>
 4    1  0.7499963E+004  0.2341769E+02  0.7546771E-02  0.1684828E+00
         21   -1    0    0  503  502  0.00000000000E+00  0.00000000000E+00  0.17350351454E+04  0.17350351454E+04  0.00000000000E+00 0.  1.
         21   -1    0    0  501  503 -0.00000000000E+00 -0.00000000000E+00 -0.31623261521E+00  0.31623261521E+00  0.00000000000E+00 0.  1.
          3    1    1    2  501    0 -0.13244268471E+02  0.19312630770E+02  0.84753751436E+03  0.84786097127E+03  0.00000000000E+00 0.  1.
         -3    1    1    2    0  502  0.13244268471E+02 -0.19312630770E+02  0.88718139841E+03  0.88749040673E+03  0.00000000000E+00 0. -1.
<mgrwt>
<rscale>  2 0.23417693E+02</rscale>
<asrwt>0</asrwt>
<pdfrwt beam="1">  1       21 0.26692086E+00 0.23417693E+02</pdfrwt>
<pdfrwt beam="2">  1       21 0.48652561E-04 0.23417693E+02</pdfrwt>
<totfact> 0.19509079E+07</totfact>
</mgrwt>
</event>
<event>
 4    1  0.7499963E+004  0.3315979E+02  0.7546771E-02  0.1565577E+00
         21   -1    0    0  501  502  0.00000000000E+00  0.00000000000E+00  0.24464246965E+02  0.24464246965E+02  0.00000000000E+00 0. -1.
         21   -1    0    0  502  503 -0.00000000000E+00 -0.00000000000E+00 -0.46686157146E+02  0.46686157146E+02  0.00000000000E+00 0. -1.
          4    1    1    2  501    0  0.15440279362E+02  0.29345688267E+02 -0.17979098770E+02  0.37720281537E+02  0.00000000000E+00 0. -1.
         -4    1    1    2    0  503 -0.15440279362E+02 -0.29345688267E+02 -0.42428114108E+01  0.33430122574E+02  0.00000000000E+00 0.  1.
<mgrwt>
<rscale>  2 0.33159790E+02</rscale>
<asrwt>0</asrwt>
<pdfrwt beam="1">  1       21 0.37637304E-02 0.33159790E+02</pdfrwt>
<pdfrwt beam="2">  1       21 0.71824856E-02 0.33159790E+02</pdfrwt>
<totfact> 0.48881632E+07</totfact>
</mgrwt>
</event>
<event>
 4    1  0.7499963E+004  0.2888858E+02  0.7546771E-02  0.1610709E+00
         21   -1    0    0  501  502  0.00000000000E+00  0.00000000000E+00  0.70210734774E+01  0.70210734774E+01  0.00000000000E+00 0. -1.
         21   -1    0    0  502  503 -0.00000000000E+00 -0.00000000000E+00 -0.13940164414E+03  0.13940164414E+03  0.00000000000E+00 0. -1.
          3    1    1    2  501    0 -0.23695195594E+02  0.16525359500E+02 -0.38089111248E+02  0.47805127303E+02  0.00000000000E+00 0. -1.
         -3    1    1    2    0  503  0.23695195594E+02 -0.16525359500E+02 -0.94291459417E+02  0.98617590317E+02  0.00000000000E+00 0.  1.
<mgrwt>
<rscale>  2 0.28888576E+02</rscale>
<asrwt>0</asrwt>
<pdfrwt beam="1">  1       21 0.10801652E-02 0.28888576E+02</pdfrwt>
<pdfrwt beam="2">  1       21 0.21446407E-01 0.28888576E+02</pdfrwt>
<totfact> 0.51199181E+07</totfact>
</mgrwt>
</event>
<event>
 4    1  0.7499963E+004  0.2473368E+02  0.7546771E-02  0.1664857E+00
         21   -1    0    0  501  502  0.00000000000E+00  0.00000000000E+00  0.47856196786E+02  0.47856196786E+02  0.00000000000E+00 0.  1.
         21   -1    0    0  502  503 -0.00000000000E+00 -0.00000000000E+00 -0.12783230857E+02  0.12783230857E+02  0.00000000000E+00 0.  1.
          3    1    1    2  501    0  0.20107399386E+02 -0.14403035308E+02  0.17483397613E+02  0.30289010024E+02  0.00000000000E+00 0.  1.
         -3    1    1    2    0  503 -0.20107399386E+02  0.14403035308E+02  0.17589568315E+02  0.30350417619E+02  0.00000000000E+00 0. -1.
<mgrwt>
<rscale>  2 0.24733680E+02</rscale>
<asrwt>0</asrwt>
<pdfrwt beam="1">  1       21 0.73624917E-02 0.24733680E+02</pdfrwt>
<pdfrwt beam="2">  1       21 0.19666509E-02 0.24733680E+02</pdfrwt>
<totfact> 0.12066222E+08</totfact>
</mgrwt>
</event>
<event>
 4    1  0.7499963E+004  0.2063950E+02  0.7546771E-02  0.1732902E+00
         21   -1    0    0  503  502  0.00000000000E+00  0.00000000000E+00  0.40355254663E+01  0.40355254663E+01  0.00000000000E+00 0. -1.
         21   -1    0    0  501  503 -0.00000000000E+00 -0.00000000000E+00 -0.11056660544E+03  0.11056660544E+03  0.00000000000E+00 0. -1.
          3    1    1    2  501    0  0.20061495911E+02 -0.48503112267E+01 -0.41071927226E+02  0.45966208711E+02  0.00000000000E+00 0. -1.
         -3    1    1    2    0  502 -0.20061495911E+02  0.48503112267E+01 -0.65459152747E+02  0.68635922195E+02  0.00000000000E+00 0.  1.
<mgrwt>
<rscale>  2 0.20639504E+02</rscale>
<asrwt>0</asrwt>
<pdfrwt beam="1">  1       21 0.62085014E-03 0.20639504E+02</pdfrwt>
<pdfrwt beam="2">  1       21 0.17010245E-01 0.20639504E+02</pdfrwt>
<totfact> 0.16075522E+08</totfact>
</mgrwt>
</event>
<event>
 4    1  0.7499963E+004  0.3027133E+02  0.7546771E-02  0.1595109E+00
         21   -1    0    0  503  502  0.00000000000E+00  0.00000000000E+00  0.69073125245E+03  0.69073125245E+03  0.00000000000E+00 0. -1.
         21   -1    0    0  501  503 -0.00000000000E+00 -0.00000000000E+00 -0.13284380659E+01  0.13284380659E+01  0.00000000000E+00 0. -1.
          4    1    1    2  501    0 -0.17911007948E+02  0.24403878025E+02  0.33197992148E+03  0.33335719841E+03  0.00000000000E+00 0. -1.
         -4    1    1    2    0  502  0.17911007948E+02 -0.24403878025E+02  0.35742289290E+03  0.35870249210E+03  0.00000000000E+00 0.  1.
<mgrwt>
<rscale>  2 0.30271331E+02</rscale>
<asrwt>0</asrwt>
<pdfrwt beam="1">  1       21 0.10626606E+00 0.30271331E+02</pdfrwt>
<pdfrwt beam="2">  1       21 0.20437564E-03 0.30271331E+02</pdfrwt>
<totfact> 0.26196771E+07</totfact>
</mgrwt>
</event>
<event>
 4    1  0.7499963E+004  0.4125022E+02  0.7546771E-02  0.1499208E+00
         21   -1    0    0  501  502  0.00000000000E+00  0.00000000000E+00  0.94084855885E+01  0.94084855885E+01  0.00000000000E+00 0.  1.
         21   -1    0    0  502  503 -0.00000000000E+00 -0.00000000000E+00 -0.26493627261E+03  0.26493627261E+03  0.00000000000E+00 0.  1.
          4    1    1    2  501    0  0.23151162070E+02 -0.34140952851E+02 -0.20503961061E+03  0.20914784935E+03  0.00000000000E+00 0. -1.
         -4    1    1    2    0  503 -0.23151162070E+02  0.34140952851E+02 -0.50488176415E+02  0.65196908857E+02  0.00000000000E+00 0.  1.
<mgrwt>
<rscale>  2 0.41250224E+02</rscale>
<asrwt>0</asrwt>
<pdfrwt beam="1">  1       21 0.14474595E-02 0.41250224E+02</pdfrwt>
<pdfrwt beam="2">  1       21 0.40759420E-01 0.41250224E+02</pdfrwt>
<totfact> 0.10607844E+07</totfact>
</mgrwt>
</event>
<event>
 4    1  0.7499963E+004  0.2802961E+02  0.7546771E-02  0.1620949E+00
         21   -1    0    0  501  502  0.00000000000E+00  0.00000000000E+00  0.10733342669E+02  0.10733342669E+02  0.00000000000E+00 0.  1.
         21   -1    0    0  502  503 -0.00000000000E+00 -0.00000000000E+00 -0.82161812318E+02  0.82161812318E+02  0.00000000000E+00 0.  1.
          1    1    1    2  501    0  0.26463213930E+02 -0.92389051958E+01 -0.20372488679E+02  0.34651080152E+02  0.00000000000E+00 0.  1.
         -1    1    1    2    0  503 -0.26463213930E+02  0.92389051958E+01 -0.51055980969E+02  0.58244074836E+02  0.00000000000E+00 0. -1.
<mgrwt>
<rscale>  2 0.28029610E+02</rscale>
<asrwt>0</asrwt>
<pdfrwt beam="1">  1       21 0.16512835E-02 0.28029610E+02</pdfrwt>
<pdfrwt beam="2">  1       21 0.12640279E-01 0.28029610E+02</pdfrwt>
<totfact> 0.66447642E+07</totfact>
</mgrwt>
</event>
<event>
 4    1  0.7499963E+004  0.2414202E+02  0.7546771E-02  0.1673640E+00
         21   -1    0    0  501  502  0.00000000000E+00  0.00000000000E+00  0.30361998166E+01  0.30361998166E+01  0.00000000000E+00 0. -1.
         21   -1    0    0  502  503 -0.00000000000E+00 -0.00000000000E+00 -0.41020934074E+03  0.41020934074E+03  0.00000000000E+00 0. -1.
          5    1    1    2  501    0 -0.17591187318E+02  0.16534429665E+02 -0.35429902800E+03  0.35512059709E+03  0.00000000000E+00 0.  1.
         -5    1    1    2    0  503  0.17591187318E+02 -0.16534429665E+02 -0.52874112923E+02  0.58124943467E+02  0.00000000000E+00 0. -1.
<mgrwt>
<rscale>  2 0.24142022E+02</rscale>
<asrwt>0</asrwt>
<pdfrwt beam="1">  1       21 0.46710802E-03 0.24142022E+02</pdfrwt>
<pdfrwt beam="2">  1       21 0.63109081E-01 0.24142022E+02</pdfrwt>
<totfact> 0.22653944E+07</totfact>
</mgrwt>
</event>
<event>
 4    1  0.7499963E+004  0.2745372E+02  0.7546771E-02  0.1628070E+00
         21   -1    0    0  501  502  0.00000000000E+00  0.00000000000E+00  0.99714527849E+00  0.99714527849E+00  0.00000000000E+00 0. -1.
         21   -1    0    0  502  503 -0.00000000000E+00 -0.00000000000E+00 -0.77682795387E+03  0.77682795387E+03  0.00000000000E+00 0. -1.
          5    1    1    2  501    0 -0.26401389744E+02 -0.75281652507E+01 -0.32402706086E+03  0.32518801150E+03  0.00000000000E+00 0.  1.
         -5    1    1    2    0  503  0.26401389744E+02  0.75281652507E+01 -0.45180374773E+03  0.45263708765E+03  0.00000000000E+00 0. -1.
<mgrwt>
<rscale>  2 0.27453718E+02</rscale>
<asrwt>0</asrwt>
<pdfrwt beam="1">  1       21 0.15340639E-03 0.27453718E+02</pdfrwt>
<pdfrwt beam="2">  1       21 0.11951244E+00 0.27453718E+02</pdfrwt>
<totfact> 0.29958686E+07</totfact>
</mgrwt>
</event>
<event>
 4    1  0.7499963E+004  0.2690122E+02  0.7546771E-02  0.1635106E+00
         21   -1    0    0  501  502  0.00000000000E+00  0.00000000000E+00  0.28530632668E+01  0.28530632668E+01  0.00000000000E+00 0.  1.
         21   -1    0    0  502  503 -0.00000000000E+00 -0.00000000000E+00 -0.26745821467E+03  0.26745821467E+03  0.00000000000E+00 0.  1.
          2    1    1    2  501    0 -0.12559220851E+01 -0.26871890919E+02 -0.10159150175E+03  0.10509285936E+03  0.00000000000E+00 0. -1.
         -2    1    1    2    0  503  0.12559220851E+01  0.26871890919E+02 -0.16301364966E+03  0.16521841858E+03  0.00000000000E+00 0.  1.
<mgrwt>
<rscale>  2 0.26901224E+02</rscale>
<asrwt>0</asrwt>
<pdfrwt beam="1">  1       21 0.43893276E-03 0.26901224E+02</pdfrwt>
<pdfrwt beam="2">  1       21 0.41147422E-01 0.26901224E+02</pdfrwt>
<totfact> 0.58717560E+07</totfact>
</mgrwt>
</event>
<event>
 4    1  0.7499963E+004  0.2051096E+02  0.7546771E-02  0.1735354E+00
         21   -1    0    0  501  502  0.00000000000E+00  0.00000000000E+00  0.88901175454E+03  0.88901175454E+03  0.00000000000E+00 0.  1.
         21   -1    0    0  502  503 -0.00000000000E+00 -0.00000000000E+00 -0.63206209010E+00  0.63206209010E+00  0.00000000000E+00 0.  1.
          5    1    1    2  501    0 -0.19951029137E+02 -0.47598052402E+01  0.66718082785E+03  0.66749603471E+03  0.00000000000E+00 0. -1.
         -5    1    1    2    0  503  0.19951029137E+02  0.47598052402E+01  0.22119886460E+03  0.22214778191E+03  0.00000000000E+00 0.  1.
<mgrwt>
<rscale>  2 0.20510956E+02</rscale>
<asrwt>0</asrwt>
<pdfrwt beam="1">  1       21 0.13677004E+00 0.20510956E+02</pdfrwt>
<pdfrwt beam="2">  1       21 0.97241033E-04 0.20510956E+02</pdfrwt>
<totfact> 0.39885771E+07</totfact>
</mgrwt>
</event>
<event>
 4    1  0.7499963E+004  0.2111161E+02  0.7546771E-02  0.1724085E+00
         21   -1    0    0  503  502  0.00000000000E+00  0.00000000000E+00  0.10326473171E+01  0.10326473171E+01  0.00000000000E+00 0.  1.
         21   -1    0    0  501  503 -0.00000000000E+00 -0.00000000000E+00 -0.44329938942E+03  0.44329938942E+03  0.00000000000E+00 0.  1.
          4    1    1    2  501    0  0.21079172107E+02 -0.11699178458E+01 -0.18505577071E+03  0.18625610990E+03  0.00000000000E+00 0.  1.
         -4    1    1    2    0  502 -0.21079172107E+02  0.11699178458E+01 -0.25721097139E+03  0.25807592683E+03  0.00000000000E+00 0. -1.
<mgrwt>
<rscale>  2 0.21111613E+02</rscale>
<asrwt>0</asrwt>
<pdfrwt beam="1">  1       21 0.15886876E-03 0.21111613E+02</pdfrwt>
<pdfrwt beam="2">  1       21 0.68199929E-01 0.21111613E+02</pdfrwt>
<totfact> 0.89987493E+07</totfact>
</mgrwt>
</event>
<event>
 4    1  0.7499963E+004  0.2554818E+02  0.7546771E-02  0.1653251E+00
         21   -1    0    0  501  502  0.00000000000E+00  0.00000000000E+00  0.12262864507E+02  0.12262864507E+02  0.00000000000E+00 0.  1.
         21   -1    0    0  502  503 -0.00000000000E+00 -0.00000000000E+00 -0.53477471718E+02  0.53477471718E+02  0.00000000000E+00 0.  1.
          2    1    1    2  501    0  0.17402211778E+01 -0.25488843312E+02 -0.18355561642E+02  0.31458482899E+02  0.00000000000E+00 0. -1.
         -2    1    1    2    0  503 -0.17402211778E+01  0.25488843312E+02 -0.22859045569E+02  0.34281853326E+02  0.00000000000E+00 0.  1.
<mgrwt>
<rscale>  2 0.25548180E+02</rscale>
<asrwt>0</asrwt>
<pdfrwt beam="1">  1       21 0.18865945E-02 0.25548180E+02</pdfrwt>
<pdfrwt beam="2">  1       21 0.82273034E-02 0.25548180E+02</pdfrwt>
<totfact> 0.10820477E+08</totfact>
</mgrwt>
</event>
<event>
 4    1  0.7499963E+004  0.2409110E+02  0.7546771E-02  0.1674411E+00
         21   -1    0    0  503  502  0.00000000000E+00  0.00000000000E+00  0.12843701589E+04  0.12843701589E+04  0.00000000000E+00 0.  1.
         21   -1    0    0  501  503 -0.00000000000E+00 -0.00000000000E+00 -0.56457163683E+00  0.56457163683E+00  0.00000000000E+00 0.  1.
          4    1    1    2  501    0 -0.22591007404E+02  0.83682470553E+01  0.35486610761E+03  0.35568291427E+03  0.00000000000E+00 0.  1.
         -4    1    1    2    0  502  0.22591007404E+02 -0.83682470553E+01  0.92893947965E+03  0.92925181626E+03  0.00000000000E+00 0. -1.
<mgrwt>
<rscale>  2 0.24091102E+02</rscale>
<asrwt>0</asrwt>
<pdfrwt beam="1">  1       21 0.19759307E+00 0.24091102E+02</pdfrwt>
<pdfrwt beam="2">  1       21 0.86858203E-04 0.24091102E+02</pdfrwt>
<totfact> 0.19717824E+07</totfact>
</mgrwt>
</event>
<event>
 4    1  0.7499963E+004  0.2284981E+02  0.7546771E-02  0.1693956E+00
         21   -1    0    0  501  502  0.00000000000E+00  0.00000000000E+00  0.53792306302E+02  0.53792306302E+02  0.00000000000E+00 0.  1.
         21   -1    0    0  502  503 -0.00000000000E+00 -0.00000000000E+00 -0.10745079671E+02  0.10745079671E+02  0.00000000000E+00 0.  1.
          2    1    1    2  501    0  0.17302997564E+02  0.14923807339E+02  0.31557729477E+02  0.38961571323E+02  0.00000000000E+00 0. -1.
         -2    1    1    2    0  503 -0.17302997564E+02 -0.14923807339E+02  0.11489497154E+02  0.25575814651E+02  0.00000000000E+00 0.  1.
<mgrwt>
<rscale>  2 0.22849809E+02</rscale>
<asrwt>0</asrwt>
<pdfrwt beam="1">  1       21 0.82757393E-02 0.22849809E+02</pdfrwt>
<pdfrwt beam="2">  1       21 0.16530892E-02 0.22849809E+02</pdfrwt>
<totfact> 0.12712009E+08</totfact>
</mgrwt>
</event>
<event>
 4    1  0.7499963E+004  0.2459563E+02  0.7546771E-02  0.1666879E+00
         21   -1    0    0  501  502  0.00000000000E+00  0.00000000000E+00  0.37970897143E+01  0.37970897143E+01  0.00000000000E+00 0. -1.
         21   -1    0    0  502  503 -0.00000000000E+00 -0.00000000000E+00 -0.18827967922E+03  0.18827967922E+03  0.00000000000E+00 0. -1.
          5    1    1    2  501    0  0.28997354774E+01  0.24424099355E+02 -0.12990770979E+03  0.13221557456E+03  0.00000000000E+00 0. -1.
         -5    1    1    2    0  503 -0.28997354774E+01 -0.24424099355E+02 -0.54574879718E+02  0.59861194370E+02  0.00000000000E+00 0.  1.
<mgrwt>
<rscale>  2 0.24595632E+02</rscale>
<asrwt>0</asrwt>
<pdfrwt beam="1">  1       21 0.58416764E-03 0.24595632E+02</pdfrwt>
<pdfrwt beam="2">  1       21 0.28966105E-01 0.24595632E+02</pdfrwt>
<totfact> 0.72320930E+07</totfact>
</mgrwt>
</event>
<event>
 4    1  0.7499963E+004  0.2309547E+02  0.7546771E-02  0.1689967E+00
         21   -1    0    0  503  502  0.00000000000E+00  0.00000000000E+00  0.12182714777E+01  0.12182714777E+01  0.00000000000E+00 0.  1.
         21   -1    0    0  501  503 -0.00000000000E+00 -0.00000000000E+00 -0.57551735413E+03  0.57551735413E+03  0.00000000000E+00 0.  1.
          3    1    1    2  501    0  0.95927543064E+01  0.21009038027E+02 -0.42819475988E+03  0.42881715568E+03  0.00000000000E+00 0. -1.
         -3    1    1    2    0  502 -0.95927543064E+01 -0.21009038027E+02 -0.14610432277E+03  0.14791846993E+03  0.00000000000E+00 0.  1.
<mgrwt>
<rscale>  2 0.23095467E+02</rscale>
<asrwt>0</asrwt>
<pdfrwt beam="1">  1       21 0.18742589E-03 0.23095467E+02</pdfrwt>
<pdfrwt beam="2">  1       21 0.88541364E-01 0.23095467E+02</pdfrwt>
<totfact> 0.42077082E+07</totfact>
</mgrwt>
</event>
<event>
 4    1  0.7499963E+004  0.2632567E+02  0.7546771E-02  0.1642660E+00
         21   -1    0    0  501  502  0.00000000000E+00  0.00000000000E+00  0.71120705868E+02  0.71120705868E+02  0.00000000000E+00 0.  1.
         21   -1    0    0  502  503 -0.00000000000E+00 -0.00000000000E+00 -0.11574964010E+02  0.11574964010E+02  0.00000000000E+00 0.  1.
          1    1    1    2  501    0  0.77082737948E+01  0.25171876837E+02  0.46215261337E+02  0.53187322256E+02  0.00000000000E+00 0.  1.
         -1    1    1    2    0  503 -0.77082737948E+01 -0.25171876837E+02  0.13330480521E+02  0.29508347621E+02  0.00000000000E+00 0. -1.
<mgrwt>
<rscale>  2 0.26325669E+02</rscale>
<asrwt>0</asrwt>
<pdfrwt beam="1">  1       21 0.10941647E-01 0.26325669E+02</pdfrwt>
<pdfrwt beam="2">  1       21 0.17807637E-02 0.26325669E+02</pdfrwt>
<totfact> 0.74295244E+07</totfact>
</mgrwt>
</event>
<event>
 4    1  0.7499963E+004  0.2966427E+02  0.7546771E-02  0.1601830E+00
         21   -1    0    0  503  502  0.00000000000E+00  0.00000000000E+00  0.21236917985E+02  0.21236917985E+02  0.00000000000E+00 0. -1.
         21   -1    0    0  501  503 -0.00000000000E+00 -0.00000000000E+00 -0.42158640043E+02  0.42158640043E+02  0.00000000000E+00 0. -1.
          3    1    1    2  501    0  0.23212942922E+02 -0.18469654445E+02 -0.14611397736E+02  0.33067533900E+02  0.00000000000E+00 0.  1.
         -3    1    1    2    0  502 -0.23212942922E+02  0.18469654445E+02 -0.63103243222E+01  0.30328024128E+02  0.00000000000E+00 0. -1.
<mgrwt>
<rscale>  2 0.29664269E+02</rscale>
<asrwt>0</asrwt>
<pdfrwt beam="1">  1       21 0.32672182E-02 0.29664269E+02</pdfrwt>
<pdfrwt beam="2">  1       21 0.64859446E-02 0.29664269E+02</pdfrwt>
<totfact> 0.70532364E+07</totfact>
</mgrwt>
</event>
<event>
 4    1  0.7499963E+004  0.2535000E+02  0.7546771E-02  0.1656025E+00
         21   -1    0    0  503  502  0.00000000000E+00  0.00000000000E+00  0.29658412934E+03  0.29658412934E+03  0.00000000000E+00 0. -1.
         21   -1    0    0  501  503 -0.00000000000E+00 -0.00000000000E+00 -0.27974416891E+01  0.27974416891E+01  0.00000000000E+00 0. -1.
          4    1    1    2  501    0 -0.22024637550E+02  0.12551398179E+02  0.75817056684E+02  0.79942781661E+02  0.00000000000E+00 0. -1.
         -4    1    1    2    0  502  0.22024637550E+02 -0.12551398179E+02  0.21796963097E+03  0.21943878937E+03  0.00000000000E+00 0.  1.
<mgrwt>
<rscale>  2 0.25349995E+02</rscale>
<asrwt>0</asrwt>
<pdfrwt beam="1">  1       21 0.45628303E-01 0.25349995E+02</pdfrwt>
<pdfrwt beam="2">  1       21 0.43037588E-03 0.25349995E+02</pdfrwt>
<totfact> 0.48943658E+07</totfact>
</mgrwt>
</event>
<event>
 4    1  0.7499963E+004  0.2339594E+02  0.7546771E-02  0.1685171E+00
         21   -1    0    0  503  502  0.00000000000E+00  0.00000000000E+00  0.18077653131E+02  0.18077653131E+02  0.00000000000E+00 0.  1.
         21   -1    0    0  501  503 -0.00000000000E+00 -0.00000000000E+00 -0.33483705137E+02  0.33483705137E+02  0.00000000000E+00 0.  1.
          4    1    1    2  501    0  0.21773301945E+02 -0.85611451039E+01 -0.15679010320E+02  0.28163828712E+02  0.00000000000E+00 0.  1.
         -4    1    1    2    0  502 -0.21773301945E+02  0.85611451039E+01  0.27295831379E+00  0.23397529556E+02  0.00000000000E+00 0. -1.
<mgrwt>
<rscale>  2 0.23395937E+02</rscale>
<asrwt>0</asrwt>
<pdfrwt beam="1">  1       21 0.27811774E-02 0.23395937E+02</pdfrwt>
<pdfrwt beam="2">  1       21 0.51513392E-02 0.23395937E+02</pdfrwt>
<totfact> 0.12358501E+08</totfact>
</mgrwt>
</event>
<event>
 4    1  0.7499963E+004  0.2027765E+02  0.7546771E-02  0.1739862E+00
         21   -1    0    0  503  502  0.00000000000E+00  0.00000000000E+00  0.38009125272E+01  0.38009125272E+01  0.00000000000E+00 0.  1.
         21   -1    0    0  501  503 -0.00000000000E+00 -0.00000000000E+00 -0.12060345041E+03  0.12060345041E+03  0.00000000000E+00 0.  1.
          4    1    1    2  501    0  0.16815722981E+02 -0.11332022030E+02 -0.78365121619E+02  0.80946127449E+02  0.00000000000E+00 0.  1.
         -4    1    1    2    0  502 -0.16815722981E+02  0.11332022030E+02 -0.38437416260E+02  0.43458235484E+02  0.00000000000E+00 0. -1.
<mgrwt>
<rscale>  2 0.20277654E+02</rscale>
<asrwt>0</asrwt>
<pdfrwt beam="1">  1       21 0.58475579E-03 0.20277654E+02</pdfrwt>
<pdfrwt beam="2">  1       21 0.18554376E-01 0.20277654E+02</pdfrwt>
<totfact> 0.15045868E+08</totfact>
</mgrwt>
</event>
<event>
 4    1  0.7499963E+004  0.2276790E+02  0.7546771E-02  0.1695300E+00
         21   -1    0    0  501  502  0.00000000000E+00  0.00000000000E+00  0.23704655187E+02  0.23704655187E+02  0.00000000000E+00 0.  1.
         21   -1    0    0  502  503 -0.00000000000E+00 -0.00000000000E+00 -0.42369180518E+02  0.42369180518E+02  0.00000000000E+00 0.  1.
          4    1    1    2  501    0 -0.87309335462E+01  0.21027314499E+02 -0.32312909465E+02  0.39528486863E+02  0.00000000000E+00 0. -1.
         -4    1    1    2    0  503  0.87309335462E+01 -0.21027314499E+02  0.13648384134E+02  0.26545348841E+02  0.00000000000E+00 0.  1.
<mgrwt>
<rscale>  2 0.22767897E+02</rscale>
<asrwt>0</asrwt>
<pdfrwt beam="1">  1       21 0.36468701E-02 0.22767897E+02</pdfrwt>
<pdfrwt beam="2">  1       21 0.65183354E-02 0.22767897E+02</pdfrwt>
<totfact> 0.55077679E+07</totfact>
</mgrwt>
</event>
<event>
 4    1  0.7499963E+004  0.2058184E+02  0.7546771E-02  0.1733999E+00
         21   -1    0    0  501  502  0.00000000000E+00  0.00000000000E+00  0.32375255226E+01  0.32375255226E+01  0.00000000000E+00 0.  1.
         21   -1    0    0  502  503 -0.00000000000E+00 -0.00000000000E+00 -0.26938564776E+03  0.26938564776E+03  0.00000000000E+00 0.  1.
          1    1    1    2  501    0  0.13266595568E+02  0.15735612380E+02 -0.23082818950E+03  0.23174396459E+03  0.00000000000E+00 0.  1.
         -1    1    1    2    0  503 -0.13266595568E+02 -0.15735612380E+02 -0.35319932736E+02  0.40879208693E+02  0.00000000000E+00 0. -1.
<mgrwt>
<rscale>  2 0.20581838E+02</rscale>
<asrwt>0</asrwt>
<pdfrwt beam="1">  1       21 0.49808070E-03 0.20581838E+02</pdfrwt>
<pdfrwt beam="2">  1       21 0.41443958E-01 0.20581838E+02</pdfrwt>
<totfact> 0.45141796E+07</totfact>
</mgrwt>
</event>
<event>
 4    1  0.7499963E+004  0.2048227E+02  0.7546771E-02  0.1735904E+00
         21   -1    0    0  503  502  0.00000000000E+00  0.00000000000E+00  0.30527051128E+01  0.30527051128E+01  0.00000000000E+00 0. -1.
         21   -1    0    0  501  503 -0.00000000000E+00 -0.00000000000E+00 -0.13819349625E+03  0.13819349625E+03  0.00000000000E+00 0. -1.
          4    1    1    2  501    0  0.91727878257E+01  0.18313479754E+02 -0.62310137828E+02  0.65590219190E+02  0.00000000000E+00 0. -1.
         -4    1    1    2    0  502 -0.91727878257E+01 -0.18313479754E+02 -0.72830653312E+02  0.75655982176E+02  0.00000000000E+00 0.  1.
<mgrwt>
<rscale>  2 0.20482275E+02</rscale>
<asrwt>0</asrwt>
<pdfrwt beam="1">  1       21 0.46964700E-03 0.20482275E+02</pdfrwt>
<pdfrwt beam="2">  1       21 0.21260535E-01 0.20482275E+02</pdfrwt>
<totfact> 0.16449391E+08</totfact>
</mgrwt>
</event>
<event>
 4    1  0.7499963E+004  0.2095447E+02  0.7546771E-02  0.1726987E+00
         21   -1    0    0  501  502  0.00000000000E+00  0.00000000000E+00  0.11358338423E+03  0.11358338423E+03  0.00000000000E+00 0. -1.
         21   -1    0    0  502  503 -0.00000000000E+00 -0.00000000000E+00 -0.39456739309E+01  0.39456739309E+01  0.00000000000E+00 0. -1.
          2    1    1    2  501    0 -0.19217247534E+02 -0.83538775219E+01  0.63180192116E+02  0.66564454090E+02  0.00000000000E+00 0. -1.
         -2    1    1    2    0  503  0.19217247534E+02  0.83538775219E+01  0.46457518185E+02  0.50964604073E+02  0.00000000000E+00 0.  1.
<mgrwt>
<rscale>  2 0.20954471E+02</rscale>
<asrwt>0</asrwt>
<pdfrwt beam="1">  1       21 0.17474364E-01 0.20954471E+02</pdfrwt>
<pdfrwt beam="2">  1       21 0.60702684E-03 0.20954471E+02</pdfrwt>
<totfact> 0.15942583E+08</totfact>
</mgrwt>
</event>
<event>
 4    1  0.7499963E+004  0.3070072E+02  0.7546771E-02  0.1590470E+00
         21   -1    0    0  503  502  0.00000000000E+00  0.00000000000E+00  0.85205083368E+01  0.85205083368E+01  0.00000000000E+00 0. -1.
         21   -1    0    0  501  503 -0.00000000000E+00 -0.00000000000E+00 -0.11704000478E+03  0.11704000478E+03  0.00000000000E+00 0. -1.
          5    1    1    2  501    0  0.12908820252E+02  0.27854921519E+02 -0.39555567888E+02  0.50071721002E+02  0.00000000000E+00 0.  1.
         -5    1    1    2    0  502 -0.12908820252E+02 -0.27854921519E+02 -0.68963928550E+02  0.75488792110E+02  0.00000000000E+00 0. -1.
<mgrwt>
<rscale>  2 0.30700721E+02</rscale>
<asrwt>0</asrwt>
<pdfrwt beam="1">  1       21 0.13108474E-02 0.30700721E+02</pdfrwt>
<pdfrwt beam="2">  1       21 0.18006155E-01 0.30700721E+02</pdfrwt>
<totfact> 0.52560626E+07</totfact>
</mgrwt>
</event>
<event>
 4    1  0.7499963E+004  0.2190528E+02  0.7546771E-02  0.1709895E+00
         21   -1    0    0  501  502  0.00000000000E+00  0.00000000000E+00  0.20532334983E+00  0.20532334983E+00  0.00000000000E+00 0. -1.
         21   -1    0    0  502  503 -0.00000000000E+00 -0.00000000000E+00 -0.23376898350E+04  0.23376898350E+04  0.00000000000E+00 0. -1.
          5    1    1    2  501    0 -0.52097002551E+01 -0.21276758797E+02 -0.11887678636E+04  0.11889696695E+04  0.00000000000E+00 0.  1.
         -5    1    1    2    0  503  0.52097002551E+01  0.21276758797E+02 -0.11487166480E+04  0.11489254888E+04  0.00000000000E+00 0. -1.
<mgrwt>
<rscale>  2 0.21905283E+02</rscale>
<asrwt>0</asrwt>
<pdfrwt beam="1">  1       21 0.31589378E-04 0.21905283E+02</pdfrwt>
<pdfrwt beam="2">  1       21 0.35963127E+00 0.21905283E+02</pdfrwt>
<totfact> 0.12603748E+07</totfact>
</mgrwt>
</event>
<event>
 4    1  0.7499963E+004  0.2784967E+02  0.7546771E-02  0.1623151E+00
         21   -1    0    0  501  502  0.00000000000E+00  0.00000000000E+00  0.77410367080E+03  0.77410367080E+03  0.00000000000E+00 0.  1.
         21   -1    0    0  502  503 -0.00000000000E+00 -0.00000000000E+00 -0.10898731655E+01  0.10898731655E+01  0.00000000000E+00 0.  1.
          2    1    1    2  501    0  0.22904925192E+00 -0.27848724639E+02  0.27641044661E+03  0.27780989710E+03  0.00000000000E+00 0. -1.
         -2    1    1    2    0  503 -0.22904925192E+00  0.27848724639E+02  0.49660335102E+03  0.49738364687E+03  0.00000000000E+00 0.  1.
<mgrwt>
<rscale>  2 0.27849667E+02</rscale>
<asrwt>0</asrwt>
<pdfrwt beam="1">  1       21 0.11909243E+00 0.27849667E+02</pdfrwt>
<pdfrwt beam="2">  1       21 0.16767341E-03 0.27849667E+02</pdfrwt>
<totfact> 0.26622978E+07</totfact>
</mgrwt>
</event>
<event>
 4    1  0.7499963E+004  0.2222023E+02  0.7546771E-02  0.1704471E+00
         21   -1    0    0  503  502  0.00000000000E+00  0.00000000000E+00  0.11137488942E+03  0.11137488942E+03  0.00000000000E+00 0.  1.
         21   -1    0    0  501  503 -0.00000000000E+00 -0.00000000000E+00 -0.45166493701E+01  0.45166493701E+01  0.00000000000E+00 0.  1.
          3    1    1    2  501    0 -0.80993171316E+01  0.20691531928E+02  0.45549071245E+02  0.50679940044E+02  0.00000000000E+00 0.  1.
         -3    1    1    2    0  502  0.80993171316E+01 -0.20691531928E+02  0.61309168801E+02  0.65211598743E+02  0.00000000000E+00 0. -1.
<mgrwt>
<rscale>  2 0.22220226E+02</rscale>
<asrwt>0</asrwt>
<pdfrwt beam="1">  1       21 0.17134596E-01 0.22220226E+02</pdfrwt>
<pdfrwt beam="2">  1       21 0.69486922E-03 0.22220226E+02</pdfrwt>
<totfact> 0.13734763E+08</totfact>
</mgrwt>
</event>
<event>
 4    1  0.7499963E+004  0.2235726E+02  0.7546771E-02  0.1702146E+00
         21   -1    0    0  501  502  0.00000000000E+00  0.00000000000E+00  0.29976224923E+02  0.29976224923E+02  0.00000000000E+00 0. -1.
         21   -1    0    0  502  503 -0.00000000000E+00 -0.00000000000E+00 -0.24172259719E+02  0.24172259719E+02  0.00000000000E+00 0. -1.
          5    1    1    2  501    0  0.19526322837E+02  0.10888972071E+02 -0.12176418658E+02  0.25458047208E+02  0.00000000000E+00 0.  1.
         -5    1    1    2    0  503 -0.19526322837E+02 -0.10888972071E+02  0.17980383862E+02  0.28690437433E+02  0.00000000000E+00 0. -1.
<mgrwt>
<rscale>  2 0.22357258E+02</rscale>
<asrwt>0</asrwt>
<pdfrwt beam="1">  1       21 0.46117269E-02 0.22357258E+02</pdfrwt>
<pdfrwt beam="2">  1       21 0.37188092E-02 0.22357258E+02</pdfrwt>
<totfact> 0.92387751E+07</totfact>
</mgrwt>
</event>
<event>
 4    1  0.7499963E+004  0.3714711E+02  0.7546771E-02  0.1530320E+00
         21   -1    0    0  503  502  0.00000000000E+00  0.00000000000E+00  0.10924167549E+01  0.10924167549E+01  0.00000000000E+00 0.  1.
         21   -1    0    0  501  503 -0.00000000000E+00 -0.00000000000E+00 -0.18033051660E+04  0.18033051660E+04  0.00000000000E+00 0.  1.
          2    1    1    2  501    0 -0.33921658591E+02 -0.15140313875E+02 -0.13948697478E+04  0.13953642970E+04  0.00000000000E+00 0.  1.
         -2    1    1    2    0  502  0.33921658591E+02  0.15140313875E+02 -0.40734300144E+03  0.40903328574E+03  0.00000000000E+00 0. -1.
<mgrwt>
<rscale>  2 0.37147113E+02</rscale>
<asrwt>0</asrwt>
<pdfrwt beam="1">  1       21 0.16806620E-03 0.37147113E+02</pdfrwt>
<pdfrwt beam="2">  1       21 0.27742812E+00 0.37147113E+02</pdfrwt>
<totfact> 0.29675118E+06</totfact>
</mgrwt>
</event>
<event>
 4    1  0.7499963E+004  0.2765690E+02  0.7546771E-02  0.1625533E+00
         21   -1    0    0  503  502  0.00000000000E+00  0.00000000000E+00  0.39835909120E+03  0.39835909120E+03  0.00000000000E+00 0. -1.
         21   -1    0    0  501  503 -0.00000000000E+00 -0.00000000000E+00 -0.19751949286E+01  0.19751949286E+01  0.00000000000E+00 0. -1.
          3    1    1    2  501    0  0.41453396218E+01  0.27344475639E+02  0.23161115794E+03  0.23325658120E+03  0.00000000000E+00 0. -1.
         -3    1    1    2    0  502 -0.41453396218E+01 -0.27344475639E+02  0.16477273833E+03  0.16707770493E+03  0.00000000000E+00 0.  1.
<mgrwt>
<rscale>  2 0.27656901E+02</rscale>
<asrwt>0</asrwt>
<pdfrwt beam="1">  1       21 0.61285950E-01 0.27656901E+02</pdfrwt>
<pdfrwt beam="2">  1       21 0.30387646E-03 0.27656901E+02</pdfrwt>
<totfact> 0.46478761E+07</totfact>
</mgrwt>
</event>
<event>
 4    1  0.7499963E+004  0.2763670E+02  0.7546771E-02  0.1625784E+00
         21   -1    0    0  501  502  0.00000000000E+00  0.00000000000E+00  0.87421228573E+01  0.87421228573E+01  0.00000000000E+00 0. -1.
         21   -1    0    0  502  503 -0.00000000000E+00 -0.00000000000E+00 -0.11720429059E+03  0.11720429059E+03  0.00000000000E+00 0. -1.
          2    1    1    2  501    0  0.24463925709E+02  0.12857051432E+02 -0.22458555939E+02  0.35611433101E+02  0.00000000000E+00 0. -1.
         -2    1    1    2    0  503 -0.24463925709E+02 -0.12857051432E+02 -0.86003611796E+02  0.90334980349E+02  0.00000000000E+00 0.  1.
<mgrwt>
<rscale>  2 0.27636704E+02</rscale>
<asrwt>0</asrwt>
<pdfrwt beam="1">  1       21 0.13449421E-02 0.27636704E+02</pdfrwt>
<pdfrwt beam="2">  1       21 0.18031428E-01 0.27636704E+02</pdfrwt>
<totfact> 0.49256572E+07</totfact>
</mgrwt>
</event>
<event>
 4    1  0.7499963E+004  0.2121651E+02  0.7546771E-02  0.1722165E+00
         21   -1    0    0  501  502  0.00000000000E+00  0.00000000000E+00  0.14094440362E+03  0.14094440362E+03  0.00000000000E+00 0. -1.
         21   -1    0    0  502  503 -0.00000000000E+00 -0.00000000000E+00 -0.35465263239E+01  0.35465263239E+01  0.00000000000E+00 0. -1.
          2    1    1    2  501    0  0.71518050162E+01 -0.19974785685E+02  0.91484632253E+02  0.93912609998E+02  0.00000000000E+00 0. -1.
         -2    1    1    2    0  503 -0.71518050162E+01  0.19974785685E+02  0.45913245041E+02  0.50578319944E+02  0.00000000000E+00 0.  1.
<mgrwt>
<rscale>  2 0.21216512E+02</rscale>
<asrwt>0</asrwt>
<pdfrwt beam="1">  1       21 0.21683750E-01 0.21216512E+02</pdfrwt>
<pdfrwt beam="2">  1       21 0.54561954E-03 0.21216512E+02</pdfrwt>
<totfact> 0.12881297E+08</totfact>
</mgrwt>
</event>
<event>
 4    1  0.7499963E+004  0.2424757E+02  0.7546771E-02  0.1672051E+00
         21   -1    0    0  503  502  0.00000000000E+00  0.00000000000E+00  0.87533478379E+01  0.87533478379E+01  0.00000000000E+00 0.  1.
         21   -1    0    0  501  503 -0.00000000000E+00 -0.00000000000E+00 -0.70286173022E+02  0.70286173022E+02  0.00000000000E+00 0.  1.
          4    1    1    2  501    0 -0.22812859294E+02  0.82169313396E+01 -0.22442408103E+02  0.33039464149E+02  0.00000000000E+00 0.  1.
         -4    1    1    2    0  502  0.22812859294E+02 -0.82169313396E+01 -0.39090417081E+02  0.46000056711E+02  0.00000000000E+00 0. -1.
<mgrwt>
<rscale>  2 0.24247567E+02</rscale>
<asrwt>0</asrwt>
<pdfrwt beam="1">  1       21 0.13466690E-02 0.24247567E+02</pdfrwt>
<pdfrwt beam="2">  1       21 0.10813257E-01 0.24247567E+02</pdfrwt>
<totfact> 0.11362914E+08</totfact>
</mgrwt>
</event>
<event>
 4    1  0.7499963E+004  0.3348887E+02  0.7546771E-02  0.1562444E+00
         21   -1    0    0  503  502  0.00000000000E+00  0.00000000000E+00  0.61359049678E+01  0.61359049678E+01  0.00000000000E+00 0. -1.
         21   -1    0    0  501  503 -0.00000000000E+00 -0.00000000000E+00 -0.19167434972E+03  0.19167434972E+03  0.00000000000E+00 0. -1.
          4    1    1    2  501    0 -0.16275915996E+02 -0.29267714762E+02 -0.71460465119E+02  0.78918328948E+02  0.00000000000E+00 0. -1.
         -4    1    1    2    0  502  0.16275915996E+02  0.29267714762E+02 -0.11407797964E+03  0.11889192574E+03  0.00000000000E+00 0.  1.
<mgrwt>
<rscale>  2 0.33488872E+02</rscale>
<asrwt>0</asrwt>
<pdfrwt beam="1">  1       21 0.94398542E-03 0.33488872E+02</pdfrwt>
<pdfrwt beam="2">  1       21 0.29488360E-01 0.33488872E+02</pdfrwt>
<totfact> 0.36408759E+07</totfact>
</mgrwt>
</event>
<event>
 4    1  0.7499963E+004  0.3067322E+02  0.7546771E-02  0.1590764E+00
         21   -1    0    0  503  502  0.00000000000E+00  0.00000000000E+00  0.66090287183E+02  0.66090287183E+02  0.00000000000E+00 0.  1.
         21   -1    0    0  501  503 -0.00000000000E+00 -0.00000000000E+00 -0.24701242103E+02  0.24701242103E+02  0.00000000000E+00 0.  1.
          2    1    1    2  501    0  0.30673215863E+02 -0.13335550532E-01 -0.88539667713E+01  0.31925523908E+02  0.00000000000E+00 0. -1.
         -2    1    1    2    0  502 -0.30673215863E+02  0.13335550532E-01  0.50243011851E+02  0.58866005377E+02  0.00000000000E+00 0.  1.
<mgrwt>
<rscale>  2 0.30673219E+02</rscale>
<asrwt>0</asrwt>
<pdfrwt beam="1">  1       21 0.10167736E-01 0.30673219E+02</pdfrwt>
<pdfrwt beam="2">  1       21 0.38001911E-02 0.30673219E+02</pdfrwt>
<totfact> 0.26617139E+07</totfact>
</mgrwt>
</event>
<event>
 4    1  0.7499963E+004  0.7011852E+02  0.7546771E-02  0.1359690E+00
         21   -1    0    0  501  502  0.00000000000E+00  0.00000000000E+00  0.50032446120E+02  0.50032446120E+02  0.00000000000E+00 0.  1.
         21   -1    0    0  502  503 -0.00000000000E+00 -0.00000000000E+00 -0.11754092913E+03  0.11754092913E+03  0.00000000000E+00 0.  1.
          1    1    1    2  501    0 -0.68639348430E+02 -0.14326419495E+02  0.17313381297E+00  0.70118730905E+02  0.00000000000E+00 0.  1.
         -1    1    1    2    0  503  0.68639348430E+02  0.14326419495E+02 -0.67681616819E+02  0.97454644341E+02  0.00000000000E+00 0. -1.
<mgrwt>
<rscale>  2 0.70118517E+02</rscale>
<asrwt>0</asrwt>
<pdfrwt beam="1">  1       21 0.76972995E-02 0.70118517E+02</pdfrwt>
<pdfrwt beam="2">  1       21 0.18083220E-01 0.70118517E+02</pdfrwt>
<totfact> 0.34195339E+06</totfact>
</mgrwt>
</event>
<event>
 4    1  0.7499963E+004  0.2251435E+02  0.7546771E-02  0.1699505E+00
         21   -1    0    0  501  502  0.00000000000E+00  0.00000000000E+00  0.13964443062E+03  0.13964443062E+03  0.00000000000E+00 0. -1.
         21   -1    0    0  502  503 -0.00000000000E+00 -0.00000000000E+00 -0.42129749961E+01  0.42129749961E+01  0.00000000000E+00 0. -1.
          1    1    1    2  501    0  0.18461900079E+02 -0.12886210148E+02  0.94474595695E+02  0.97120262553E+02  0.00000000000E+00 0. -1.
         -1    1    1    2    0  503 -0.18461900079E+02  0.12886210148E+02  0.40956859926E+02  0.46737143061E+02  0.00000000000E+00 0.  1.
<mgrwt>
<rscale>  2 0.22514355E+02</rscale>
<asrwt>0</asrwt>
<pdfrwt beam="1">  1       21 0.21483755E-01 0.22514355E+02</pdfrwt>
<pdfrwt beam="2">  1       21 0.64815011E-03 0.22514355E+02</pdfrwt>
<totfact> 0.10321763E+08</totfact>
</mgrwt>
</event>
<event>
 4    1  0.7499963E+004  0.4799832E+02  0.7546771E-02  0.1456447E+00
         21   -1    0    0  503  502  0.00000000000E+00  0.00000000000E+00  0.10908603803E+03  0.10908603803E+03  0.00000000000E+00 0.  1.
         21   -1    0    0  501  503 -0.00000000000E+00 -0.00000000000E+00 -0.25974689647E+02  0.25974689647E+02  0.00000000000E+00 0.  1.
          4    1    1    2  501    0 -0.10896807443E+02 -0.46745039989E+02  0.70752013417E+02  0.85496705075E+02  0.00000000000E+00 0.  1.
         -4    1    1    2    0  502  0.10896807443E+02  0.46745039989E+02  0.12359334971E+02  0.49564022607E+02  0.00000000000E+00 0. -1.
<mgrwt>
<rscale>  2 0.47998325E+02</rscale>
<asrwt>0</asrwt>
<pdfrwt beam="1">  1       21 0.16782467E-01 0.47998325E+02</pdfrwt>
<pdfrwt beam="2">  1       21 0.39961062E-02 0.47998325E+02</pdfrwt>
<totfact> 0.11139427E+07</totfact>
</mgrwt>
</event>
<event>
 4    1  0.7499963E+004  0.6076005E+02  0.7546771E-02  0.1394670E+00
         21   -1    0    0  503  502  0.00000000000E+00  0.00000000000E+00  0.32882875473E+01  0.32882875473E+01  0.00000000000E+00 0. -1.
         21   -1    0    0  501  503 -0.00000000000E+00 -0.00000000000E+00 -0.11494743325E+04  0.11494743325E+04  0.00000000000E+00 0. -1.
          4    1    1    2  501    0  0.46209190707E+02  0.39452431545E+02 -0.48513767038E+03  0.48892774812E+03  0.00000000000E+00 0. -1.
         -4    1    1    2    0  502 -0.46209190707E+02 -0.39452431545E+02 -0.66104837459E+03  0.66383487194E+03  0.00000000000E+00 0.  1.
<mgrwt>
<rscale>  2 0.60760050E+02</rscale>
<asrwt>0</asrwt>
<pdfrwt beam="1">  1       21 0.50589028E-03 0.60760050E+02</pdfrwt>
<pdfrwt beam="2">  1       21 0.17684225E+00 0.60760050E+02</pdfrwt>
<totfact> 0.21138749E+06</totfact>
</mgrwt>
</event>
<event>
 4    1  0.7499963E+004  0.2460955E+02  0.7546771E-02  0.1666674E+00
         21   -1    0    0  501  502  0.00000000000E+00  0.00000000000E+00  0.34684882991E+01  0.34684882991E+01  0.00000000000E+00 0. -1.
         21   -1    0    0  502  503 -0.00000000000E+00 -0.00000000000E+00 -0.17493610480E+03  0.17493610480E+03  0.00000000000E+00 0. -1.
          2    1    1    2  501    0 -0.11698575080E+02  0.21651178262E+02 -0.81878080378E+02  0.85496492474E+02  0.00000000000E+00 0.  1.
         -2    1    1    2    0  503  0.11698575080E+02 -0.21651178262E+02 -0.89589536125E+02  0.92908100627E+02  0.00000000000E+00 0. -1.
<mgrwt>
<rscale>  2 0.24609555E+02</rscale>
<asrwt>0</asrwt>
<pdfrwt beam="1">  1       21 0.53361370E-03 0.24609555E+02</pdfrwt>
<pdfrwt beam="2">  1       21 0.26913241E-01 0.24609555E+02</pdfrwt>
<totfact> 0.94486249E+07</totfact>
</mgrwt>
</event>
<event>
 4    1  0.7499963E+004  0.3160243E+02  0.7546771E-02  0.1581023E+00
         21   -1    0    0  501  502  0.00000000000E+00  0.00000000000E+00  0.18084533985E+01  0.18084533985E+01  0.00000000000E+00 0. -1.
         21   -1    0    0  502  503 -0.00000000000E+00 -0.00000000000E+00 -0.55730553307E+03  0.55730553307E+03  0.00000000000E+00 0. -1.
          1    1    1    2  501    0 -0.25619889493E+02  0.18502298482E+02 -0.25111576306E+03  0.25309650381E+03  0.00000000000E+00 0. -1.
         -1    1    1    2    0  503  0.25619889493E+02 -0.18502298482E+02 -0.30438131662E+03  0.30601748266E+03  0.00000000000E+00 0.  1.
<mgrwt>
<rscale>  2 0.31602433E+02</rscale>
<asrwt>0</asrwt>
<pdfrwt beam="1">  1       21 0.27822399E-03 0.31602433E+02</pdfrwt>
<pdfrwt beam="2">  1       21 0.85739194E-01 0.31602433E+02</pdfrwt>
<totfact> 0.26921549E+07</totfact>
</mgrwt>
</event>
<event>
 4    1  0.7499963E+004  0.2048988E+02  0.7546771E-02  0.1735758E+00
         21   -1    0    0  503  502  0.00000000000E+00  0.00000000000E+00  0.22757681518E+02  0.22757681518E+02  0.00000000000E+00 0. -1.
         21   -1    0    0  501  503 -0.00000000000E+00 -0.00000000000E+00 -0.19153350894E+02  0.19153350894E+02  0.00000000000E+00 0. -1.
          2    1    1    2  501    0 -0.12365992633E+02  0.16337611595E+02 -0.22190442373E+01  0.20609693927E+02  0.00000000000E+00 0. -1.
         -2    1    1    2    0  502  0.12365992633E+02 -0.16337611595E+02  0.58233748608E+01  0.21301338484E+02  0.00000000000E+00 0.  1.
<mgrwt>
<rscale>  2 0.20489884E+02</rscale>
<asrwt>0</asrwt>
<pdfrwt beam="1">  1       21 0.35011818E-02 0.20489884E+02</pdfrwt>
<pdfrwt beam="2">  1       21 0.29466694E-02 0.20489884E+02</pdfrwt>
<totfact> 0.19938406E+08</totfact>
</mgrwt>
</event>
<event>
 4    1  0.7499963E+004  0.2371546E+02  0.7546771E-02  0.1680168E+00
         21   -1    0    0  501  502  0.00000000000E+00  0.00000000000E+00  0.27838219267E+02  0.27838219267E+02  0.00000000000E+00 0. -1.
         21   -1    0    0  502  503 -0.00000000000E+00 -0.00000000000E+00 -0.20288968290E+02  0.20288968290E+02  0.00000000000E+00 0. -1.
          5    1    1    2  501    0 -0.21367366413E+02  0.10288772007E+02  0.22107363394E+01  0.23818281466E+02  0.00000000000E+00 0. -1.
         -5    1    1    2    0  503  0.21367366413E+02 -0.10288772007E+02  0.53385146382E+01  0.24308906091E+02  0.00000000000E+00 0.  1.
<mgrwt>
<rscale>  2 0.23715463E+02</rscale>
<asrwt>0</asrwt>
<pdfrwt beam="1">  1       21 0.42828030E-02 0.23715463E+02</pdfrwt>
<pdfrwt beam="2">  1       21 0.31213797E-02 0.23715463E+02</pdfrwt>
<totfact> 0.13901897E+08</totfact>
</mgrwt>
</event>
<event>
 4    1  0.7499963E+004  0.2102183E+02  0.7546771E-02  0.1725739E+00
         21   -1    0    0  501  502  0.00000000000E+00  0.00000000000E+00  0.30870491578E+02  0.30870491578E+02  0.00000000000E+00 0. -1.
         21   -1    0    0  502  503 -0.00000000000E+00 -0.00000000000E+00 -0.18206254116E+02  0.18206254116E+02  0.00000000000E+00 0. -1.
          5    1    1    2  501    0  0.70487272176E+01  0.19804862336E+02  0.17676200225E+02  0.27465709201E+02  0.00000000000E+00 0. -1.
         -5    1    1    2    0  503 -0.70487272176E+01 -0.19804862336E+02 -0.50119627628E+01  0.21611036492E+02  0.00000000000E+00 0.  1.
<mgrwt>
<rscale>  2 0.21021825E+02</rscale>
<asrwt>0</asrwt>
<pdfrwt beam="1">  1       21 0.47493064E-02 0.21021825E+02</pdfrwt>
<pdfrwt beam="2">  1       21 0.28009622E-02 0.21021825E+02</pdfrwt>
<totfact> 0.13467631E+08</totfact>
</mgrwt>
</event>
<event>
 4    1  0.7499963E+004  0.2111149E+02  0.7546771E-02  0.1724087E+00
         21   -1    0    0  501  502  0.00000000000E+00  0.00000000000E+00  0.34559822868E+01  0.34559822868E+01  0.00000000000E+00 0.  1.
         21   -1    0    0  502  503 -0.00000000000E+00 -0.00000000000E+00 -0.13976145589E+03  0.13976145589E+03  0.00000000000E+00 0.  1.
          5    1    1    2  501    0  0.19827513206E+02 -0.72501476972E+01 -0.48248443875E+02  0.52665047782E+02  0.00000000000E+00 0.  1.
         -5    1    1    2    0  503 -0.19827513206E+02  0.72501476972E+01 -0.88057029733E+02  0.90552390399E+02  0.00000000000E+00 0. -1.
<mgrwt>
<rscale>  2 0.21111488E+02</rscale>
<asrwt>0</asrwt>
<pdfrwt beam="1">  1       21 0.53168959E-03 0.21111488E+02</pdfrwt>
<pdfrwt beam="2">  1       21 0.21501762E-01 0.21111488E+02</pdfrwt>
<totfact> 0.13560937E+08</totfact>
</mgrwt>
</event>
<event>
 4    1  0.7499963E+004  0.2240015E+02  0.7546771E-02  0.1701422E+00
         21   -1    0    0  501  502  0.00000000000E+00  0.00000000000E+00  0.84107408205E+03  0.84107408205E+03  0.00000000000E+00 0.  1.
         21   -1    0    0  502  503 -0.00000000000E+00 -0.00000000000E+00 -0.75595261669E+00  0.75595261669E+00  0.00000000000E+00 0.  1.
          3    1    1    2  501    0 -0.89759722246E+01  0.20523127392E+02  0.22689289809E+03  0.22799595181E+03  0.00000000000E+00 0.  1.
         -3    1    1    2    0  503  0.89759722246E+01 -0.20523127392E+02  0.61342523134E+03  0.61383408286E+03  0.00000000000E+00 0. -1.
<mgrwt>
<rscale>  2 0.22400153E+02</rscale>
<asrwt>0</asrwt>
<pdfrwt beam="1">  1       21 0.12939526E+00 0.22400153E+02</pdfrwt>
<pdfrwt beam="2">  1       21 0.11630108E-03 0.22400153E+02</pdfrwt>
<totfact> 0.35770765E+07</totfact>
</mgrwt>
</event>
<event>
 4    1  0.7499963E+004  0.4368781E+02  0.7546771E-02  0.1482704E+00
         21   -1    0    0  501  502  0.00000000000E+00  0.00000000000E+00  0.30648400127E+02  0.30648400127E+02  0.00000000000E+00 0. -1.
         21   -1    0    0  502  503 -0.00000000000E+00 -0.00000000000E+00 -0.63156650358E+02  0.63156650358E+02  0.00000000000E+00 0. -1.
          5    1    1    2  501    0 -0.29543670905E+02  0.32183782106E+02 -0.10712037091E+02  0.44981908139E+02  0.00000000000E+00 0.  1.
         -5    1    1    2    0  503  0.29543670905E+02 -0.32183782106E+02 -0.21796213140E+02  0.48823142345E+02  0.00000000000E+00 0. -1.
<mgrwt>
<rscale>  2 0.43687805E+02</rscale>
<asrwt>0</asrwt>
<pdfrwt beam="1">  1       21 0.47151385E-02 0.43687805E+02</pdfrwt>
<pdfrwt beam="2">  1       21 0.97164077E-02 0.43687805E+02</pdfrwt>
<totfact> 0.21614098E+07</totfact>
</mgrwt>
</event>
<event>
 4    1  0.7499963E+004  0.2195459E+02  0.7546771E-02  0.1709039E+00
         21   -1    0    0  503  502  0.00000000000E+00  0.00000000000E+00  0.15108950348E+03  0.15108950348E+03  0.00000000000E+00 0.  1.
         21   -1    0    0  501  503 -0.00000000000E+00 -0.00000000000E+00 -0.32454618386E+01  0.32454618386E+01  0.00000000000E+00 0.  1.
          3    1    1    2  501    0 -0.20602672018E+02  0.75851023926E+01  0.83992662653E+02  0.86814579721E+02  0.00000000000E+00 0.  1.
         -3    1    1    2    0  502  0.20602672018E+02 -0.75851023926E+01  0.63851378990E+02  0.67520385600E+02  0.00000000000E+00 0. -1.
<mgrwt>
<rscale>  2 0.21954587E+02</rscale>
<asrwt>0</asrwt>
<pdfrwt beam="1">  1       21 0.23244534E-01 0.21954587E+02</pdfrwt>
<pdfrwt beam="2">  1       21 0.49930194E-03 0.21954587E+02</pdfrwt>
<totfact> 0.13119048E+08</totfact>
</mgrwt>
</event>
<event>
 4    1  0.7499963E+004  0.2058974E+02  0.7546771E-02  0.1733848E+00
         21   -1    0    0  501  502  0.00000000000E+00  0.00000000000E+00  0.15411829295E+03  0.15411829295E+03  0.00000000000E+00 0. -1.
         21   -1    0    0  502  503 -0.00000000000E+00 -0.00000000000E+00 -0.28610985382E+01  0.28610985382E+01  0.00000000000E+00 0. -1.
          2    1    1    2  501    0  0.54503116983E+01 -0.19855267428E+02  0.60212575027E+02  0.63635616864E+02  0.00000000000E+00 0.  1.
         -2    1    1    2    0  503 -0.54503116983E+01  0.19855267428E+02  0.91044619386E+02  0.93343774626E+02  0.00000000000E+00 0. -1.
<mgrwt>
<rscale>  2 0.20589744E+02</rscale>
<asrwt>0</asrwt>
<pdfrwt beam="1">  1       21 0.23710500E-01 0.20589744E+02</pdfrwt>
<pdfrwt beam="2">  1       21 0.44016913E-03 0.20589744E+02</pdfrwt>
<totfact> 0.14960685E+08</totfact>
</mgrwt>
</event>
<event>
 4    1  0.7499963E+004  0.2445670E+02  0.7546771E-02  0.1668930E+00
         21   -1    0    0  501  502  0.00000000000E+00  0.00000000000E+00  0.61838515872E+03  0.61838515872E+03  0.00000000000E+00 0.  1.
         21   -1    0    0  502  503 -0.00000000000E+00 -0.00000000000E+00 -0.12251338985E+01  0.12251338985E+01  0.00000000000E+00 0.  1.
          2    1    1    2  501    0 -0.24100687788E+02  0.41577929939E+01  0.45071878857E+03  0.45138183034E+03  0.00000000000E+00 0.  1.
         -2    1    1    2    0  503  0.24100687788E+02 -0.41577929939E+01  0.16644123626E+03  0.16822846228E+03  0.00000000000E+00 0. -1.
<mgrwt>
<rscale>  2 0.24456704E+02</rscale>
<asrwt>0</asrwt>
<pdfrwt beam="1">  1       21 0.95135929E-01 0.24456704E+02</pdfrwt>
<pdfrwt beam="2">  1       21 0.18848263E-03 0.24456704E+02</pdfrwt>
<totfact> 0.36187410E+07</totfact>
</mgrwt>
</event>
<event>
 4    1  0.7499963E+004  0.2617814E+02  0.7546771E-02  0.1644635E+00
         21   -1    0    0  501  502  0.00000000000E+00  0.00000000000E+00  0.58305284723E+01  0.58305284723E+01  0.00000000000E+00 0. -1.
         21   -1    0    0  502  503 -0.00000000000E+00 -0.00000000000E+00 -0.12749950607E+03  0.12749950607E+03  0.00000000000E+00 0. -1.
          4    1    1    2  501    0 -0.19268613567E+02  0.17720484755E+02 -0.79470678082E+02  0.83671283745E+02  0.00000000000E+00 0. -1.
         -4    1    1    2    0  503  0.19268613567E+02 -0.17720484755E+02 -0.42198299516E+02  0.49658750797E+02  0.00000000000E+00 0.  1.
<mgrwt>
<rscale>  2 0.26178141E+02</rscale>
<asrwt>0</asrwt>
<pdfrwt beam="1">  1       21 0.89700457E-03 0.26178141E+02</pdfrwt>
<pdfrwt beam="2">  1       21 0.19615304E-01 0.26178141E+02</pdfrwt>
<totfact> 0.77517207E+07</totfact>
</mgrwt>
</event>
<event>
 4    1  0.7499963E+004  0.2310194E+02  0.7546771E-02  0.1689863E+00
         21   -1    0    0  501  502  0.00000000000E+00  0.00000000000E+00  0.16299977282E+03  0.16299977282E+03  0.00000000000E+00 0. -1.
         21   -1    0    0  502  503 -0.00000000000E+00 -0.00000000000E+00 -0.32753482978E+01  0.32753482978E+01  0.00000000000E+00 0. -1.
          2    1    1    2  501    0  0.19630831619E+02 -0.12179086603E+02  0.81394383633E+02  0.84609369383E+02  0.00000000000E+00 0. -1.
         -2    1    1    2    0  503 -0.19630831619E+02  0.12179086603E+02  0.78330040888E+02  0.81665751733E+02  0.00000000000E+00 0.  1.
<mgrwt>
<rscale>  2 0.23101941E+02</rscale>
<asrwt>0</asrwt>
<pdfrwt beam="1">  1       21 0.25076882E-01 0.23101941E+02</pdfrwt>
<pdfrwt beam="2">  1       21 0.50389986E-03 0.23101941E+02</pdfrwt>
<totfact> 0.11475749E+08</totfact>
</mgrwt>
</event>
<event>
 4    1  0.7499963E+004  0.2239094E+02  0.7546771E-02  0.1701577E+00
         21   -1    0    0  503  502  0.00000000000E+00  0.00000000000E+00  0.99806530940E+02  0.99806530940E+02  0.00000000000E+00 0.  1.
         21   -1    0    0  501  503 -0.00000000000E+00 -0.00000000000E+00 -0.53062088708E+01  0.53062088708E+01  0.00000000000E+00 0.  1.
          3    1    1    2  501    0  0.36003375002E+00 -0.22388045993E+02  0.59386469626E+02  0.63467369587E+02  0.00000000000E+00 0.  1.
         -3    1    1    2    0  502 -0.36003375002E+00  0.22388045993E+02  0.35113852444E+02  0.41645370224E+02  0.00000000000E+00 0. -1.
<mgrwt>
<rscale>  2 0.22390941E+02</rscale>
<asrwt>0</asrwt>
<pdfrwt beam="1">  1       21 0.15354850E-01 0.22390941E+02</pdfrwt>
<pdfrwt beam="2">  1       21 0.81633990E-03 0.22390941E+02</pdfrwt>
<totfact> 0.13065134E+08</totfact>
</mgrwt>
</event>
<event>
 4    1  0.7499963E+004  0.2475920E+02  0.7546771E-02  0.1664485E+00
         21   -1    0    0  503  502  0.00000000000E+00  0.00000000000E+00  0.10073239771E+02  0.10073239771E+02  0.00000000000E+00 0. -1.
         21   -1    0    0  501  503 -0.00000000000E+00 -0.00000000000E+00 -0.63730768813E+02  0.63730768813E+02  0.00000000000E+00 0. -1.
          1    1    1    2  501    0  0.18948134302E+02 -0.15936950673E+02 -0.18991427743E+02  0.31204046500E+02  0.00000000000E+00 0.  1.
         -1    1    1    2    0  502 -0.18948134302E+02  0.15936950673E+02 -0.34666101299E+02  0.42599962083E+02  0.00000000000E+00 0. -1.
<mgrwt>
<rscale>  2 0.24759204E+02</rscale>
<asrwt>0</asrwt>
<pdfrwt beam="1">  1       21 0.15497292E-02 0.24759204E+02</pdfrwt>
<pdfrwt beam="2">  1       21 0.98047336E-02 0.24759204E+02</pdfrwt>
<totfact> 0.10859401E+08</totfact>
</mgrwt>
</event>
<event>
 4    1  0.7499963E+004  0.2905666E+02  0.7546771E-02  0.1608756E+00
         21   -1    0    0  501  502  0.00000000000E+00  0.00000000000E+00  0.28821337394E+03  0.28821337394E+03  0.00000000000E+00 0.  1.
         21   -1    0    0  502  503 -0.00000000000E+00 -0.00000000000E+00 -0.30633000943E+01  0.30633000943E+01  0.00000000000E+00 0.  1.
          2    1    1    2  501    0  0.27160167535E+02 -0.10325453015E+02  0.11212513621E+03  0.11582890767E+03  0.00000000000E+00 0.  1.
         -2    1    1    2    0  503 -0.27160167535E+02  0.10325453015E+02  0.17302493763E+03  0.17544776636E+03  0.00000000000E+00 0. -1.
<mgrwt>
<rscale>  2 0.29056663E+02</rscale>
<asrwt>0</asrwt>
<pdfrwt beam="1">  1       21 0.44340498E-01 0.29056663E+02</pdfrwt>
<pdfrwt beam="2">  1       21 0.47127716E-03 0.29056663E+02</pdfrwt>
<totfact> 0.46564590E+07</totfact>
</mgrwt>
</event>
<event>
 4    1  0.7499963E+004  0.2021526E+02  0.7546771E-02  0.1741081E+00
         21   -1    0    0  503  502  0.00000000000E+00  0.00000000000E+00  0.15908367855E+03  0.15908367855E+03  0.00000000000E+00 0. -1.
         21   -1    0    0  501  503 -0.00000000000E+00 -0.00000000000E+00 -0.33538106124E+01  0.33538106124E+01  0.00000000000E+00 0. -1.
          5    1    1    2  501    0  0.35204148392E+01 -0.19906366636E+02  0.38571476163E+02  0.43547853296E+02  0.00000000000E+00 0.  1.
         -5    1    1    2    0  502 -0.35204148392E+01  0.19906366636E+02  0.11715839177E+03  0.11888963586E+03  0.00000000000E+00 0. -1.
<mgrwt>
<rscale>  2 0.20215260E+02</rscale>
<asrwt>0</asrwt>
<pdfrwt beam="1">  1       21 0.24474406E-01 0.20215260E+02</pdfrwt>
<pdfrwt beam="2">  1       21 0.51597099E-03 0.20215260E+02</pdfrwt>
<totfact> 0.11144331E+08</totfact>
</mgrwt>
</event>
<event>
 4    1  0.7499963E+004  0.2443338E+02  0.7546771E-02  0.1669276E+00
         21   -1    0    0  501  502  0.00000000000E+00  0.00000000000E+00  0.83244479755E+01  0.83244479755E+01  0.00000000000E+00 0.  1.
         21   -1    0    0  502  503 -0.00000000000E+00 -0.00000000000E+00 -0.72443743020E+02  0.72443743020E+02  0.00000000000E+00 0.  1.
          2    1    1    2  501    0 -0.42275297019E+01 -0.24064867442E+02 -0.36109350436E+02  0.43599025692E+02  0.00000000000E+00 0. -1.
         -2    1    1    2    0  503  0.42275297019E+01  0.24064867442E+02 -0.28009944608E+02  0.37169165303E+02  0.00000000000E+00 0.  1.
<mgrwt>
<rscale>  2 0.24433376E+02</rscale>
<asrwt>0</asrwt>
<pdfrwt beam="1">  1       21 0.12806843E-02 0.24433376E+02</pdfrwt>
<pdfrwt beam="2">  1       21 0.11145191E-01 0.24433376E+02</pdfrwt>
<totfact> 0.11684860E+08</totfact>
</mgrwt>
</event>
<event>
 4    1  0.7499963E+004  0.3992255E+02  0.7546771E-02  0.1508782E+00
         21   -1    0    0  501  502  0.00000000000E+00  0.00000000000E+00  0.23951911378E+02  0.23951911378E+02  0.00000000000E+00 0.  1.
         21   -1    0    0  502  503 -0.00000000000E+00 -0.00000000000E+00 -0.80686518638E+02  0.80686518638E+02  0.00000000000E+00 0.  1.
          4    1    1    2  501    0  0.26980563262E+02  0.29425484613E+02 -0.50272826795E+02  0.64196316503E+02  0.00000000000E+00 0.  1.
         -4    1    1    2    0  503 -0.26980563262E+02 -0.29425484613E+02 -0.64617804657E+01  0.40442113513E+02  0.00000000000E+00 0. -1.
<mgrwt>
<rscale>  2 0.39922549E+02</rscale>
<asrwt>0</asrwt>
<pdfrwt beam="1">  1       21 0.36849095E-02 0.39922549E+02</pdfrwt>
<pdfrwt beam="2">  1       21 0.12413310E-01 0.39922549E+02</pdfrwt>
<totfact> 0.20893833E+07</totfact>
</mgrwt>
</event>
<event>
 4    1  0.7499963E+004  0.2676072E+02  0.7546771E-02  0.1636928E+00
         21   -1    0    0  501  502  0.00000000000E+00  0.00000000000E+00  0.18267282028E+02  0.18267282028E+02  0.00000000000E+00 0. -1.
         21   -1    0    0  502  503 -0.00000000000E+00 -0.00000000000E+00 -0.47615903733E+02  0.47615903733E+02  0.00000000000E+00 0. -1.
          3    1    1    2  501    0  0.16024842205E+02 -0.21432237648E+02 -0.82794773926E+00  0.26773529386E+02  0.00000000000E+00 0. -1.
         -3    1    1    2    0  503 -0.16024842205E+02  0.21432237648E+02 -0.28520673966E+02  0.39109656375E+02  0.00000000000E+00 0.  1.
<mgrwt>
<rscale>  2 0.26760725E+02</rscale>
<asrwt>0</asrwt>
<pdfrwt beam="1">  1       21 0.28103512E-02 0.26760725E+02</pdfrwt>
<pdfrwt beam="2">  1       21 0.73255234E-02 0.26760725E+02</pdfrwt>
<totfact> 0.71420038E+07</totfact>
</mgrwt>
</event>
<event>
 4    1  0.7499963E+004  0.2348088E+02  0.7546771E-02  0.1683832E+00
         21   -1    0    0  501  502  0.00000000000E+00  0.00000000000E+00  0.96374327792E+02  0.96374327792E+02  0.00000000000E+00 0. -1.
         21   -1    0    0  502  503 -0.00000000000E+00 -0.00000000000E+00 -0.57209456689E+01  0.57209456689E+01  0.00000000000E+00 0. -1.
          3    1    1    2  501    0 -0.93139111907E+01 -0.21554651116E+02  0.45285055004E+02  0.51010666857E+02  0.00000000000E+00 0.  1.
         -3    1    1    2    0  503  0.93139111907E+01  0.21554651116E+02  0.45368327119E+02  0.51084606605E+02  0.00000000000E+00 0. -1.
<mgrwt>
<rscale>  2 0.23480884E+02</rscale>
<asrwt>0</asrwt>
<pdfrwt beam="1">  1       21 0.14826818E-01 0.23480884E+02</pdfrwt>
<pdfrwt beam="2">  1       21 0.88014556E-03 0.23480884E+02</pdfrwt>
<totfact> 0.12563538E+08</totfact>
</mgrwt>
</event>
<event>
 4    1  0.7499963E+004  0.2478922E+02  0.7546771E-02  0.1664048E+00
         21   -1    0    0  503  502  0.00000000000E+00  0.00000000000E+00  0.31929575113E+01  0.31929575113E+01  0.00000000000E+00 0. -1.
         21   -1    0    0  501  503 -0.00000000000E+00 -0.00000000000E+00 -0.20440259919E+03  0.20440259919E+03  0.00000000000E+00 0. -1.
          2    1    1    2  501    0  0.22325655828E+02 -0.10773601599E+02 -0.75511504183E+02  0.79476365440E+02  0.00000000000E+00 0. -1.
         -2    1    1    2    0  502 -0.22325655828E+02  0.10773601599E+02 -0.12569813750E+03  0.12811919126E+03  0.00000000000E+00 0.  1.
<mgrwt>
<rscale>  2 0.24789219E+02</rscale>
<asrwt>0</asrwt>
<pdfrwt beam="1">  1       21 0.49122422E-03 0.24789219E+02</pdfrwt>
<pdfrwt beam="2">  1       21 0.31446555E-01 0.24789219E+02</pdfrwt>
<totfact> 0.80609845E+07</totfact>
</mgrwt>
</event>
<event>
 4    1  0.7499963E+004  0.2112060E+02  0.7546771E-02  0.1723920E+00
         21   -1    0    0  501  502  0.00000000000E+00  0.00000000000E+00  0.97463334043E+00  0.97463334043E+00  0.00000000000E+00 0. -1.
         21   -1    0    0  502  503 -0.00000000000E+00 -0.00000000000E+00 -0.48790358932E+03  0.48790358932E+03  0.00000000000E+00 0. -1.
          3    1    1    2  501    0 -0.19157906554E+02 -0.88912466505E+01 -0.30429295425E+03  0.30502505087E+03  0.00000000000E+00 0.  1.
         -3    1    1    2    0  503  0.19157906554E+02  0.88912466505E+01 -0.18263600172E+03  0.18385317179E+03  0.00000000000E+00 0. -1.
<mgrwt>
<rscale>  2 0.21120598E+02</rscale>
<asrwt>0</asrwt>
<pdfrwt beam="1">  1       21 0.14994352E-03 0.21120598E+02</pdfrwt>
<pdfrwt beam="2">  1       21 0.75062125E-01 0.21120598E+02</pdfrwt>
<totfact> 0.80321158E+07</totfact>
</mgrwt>
</event>
<event>
 4    1  0.7499963E+004  0.2193952E+02  0.7546771E-02  0.1709300E+00
         21   -1    0    0  501  502  0.00000000000E+00  0.00000000000E+00  0.95658771879E+00  0.95658771879E+00  0.00000000000E+00 0. -1.
         21   -1    0    0  502  503 -0.00000000000E+00 -0.00000000000E+00 -0.53610734583E+03  0.53610734583E+03  0.00000000000E+00 0. -1.
          3    1    1    2  501    0  0.21784333835E+02 -0.26048837182E+01 -0.20103251143E+03  0.20222614389E+03  0.00000000000E+00 0. -1.
         -3    1    1    2    0  503 -0.21784333835E+02  0.26048837182E+01 -0.33411824668E+03  0.33483778966E+03  0.00000000000E+00 0.  1.
<mgrwt>
<rscale>  2 0.21939522E+02</rscale>
<asrwt>0</asrwt>
<pdfrwt beam="1">  1       21 0.14716753E-03 0.21939522E+02</pdfrwt>
<pdfrwt beam="2">  1       21 0.82477946E-01 0.21939522E+02</pdfrwt>
<totfact> 0.68420622E+07</totfact>
</mgrwt>
</event>
<event>
 4    1  0.7499963E+004  0.2332377E+02  0.7546771E-02  0.1686315E+00
         21   -1    0    0  503  502  0.00000000000E+00  0.00000000000E+00  0.78459116627E+02  0.78459116627E+02  0.00000000000E+00 0. -1.
         21   -1    0    0  501  503 -0.00000000000E+00 -0.00000000000E+00 -0.84203636150E+01  0.84203636150E+01  0.00000000000E+00 0. -1.
          4    1    1    2  501    0  0.22230030920E+02 -0.70585971998E+01  0.53273208191E+02  0.58155247227E+02  0.00000000000E+00 0. -1.
         -4    1    1    2    0  502 -0.22230030920E+02  0.70585971998E+01  0.16765544822E+02  0.28724233015E+02  0.00000000000E+00 0.  1.
<mgrwt>
<rscale>  2 0.23323766E+02</rscale>
<asrwt>0</asrwt>
<pdfrwt beam="1">  1       21 0.12070633E-01 0.23323766E+02</pdfrwt>
<pdfrwt beam="2">  1       21 0.12954406E-02 0.23323766E+02</pdfrwt>
<totfact> 0.99174337E+07</totfact>
</mgrwt>
</event>
<event>
 4    1  0.7499963E+004  0.2253735E+02  0.7546771E-02  0.1699121E+00
         21   -1    0    0  503  502  0.00000000000E+00  0.00000000000E+00  0.66604027823E+00  0.66604027823E+00  0.00000000000E+00 0. -1.
         21   -1    0    0  501  503 -0.00000000000E+00 -0.00000000000E+00 -0.10488487670E+04  0.10488487670E+04  0.00000000000E+00 0. -1.
          4    1    1    2  501    0  0.21715176590E+02 -0.60318405391E+01 -0.24995734809E+03  0.25097132876E+03  0.00000000000E+00 0.  1.
         -4    1    1    2    0  502 -0.21715176590E+02  0.60318405391E+01 -0.79822537864E+03  0.79854347853E+03  0.00000000000E+00 0. -1.
<mgrwt>
<rscale>  2 0.22537347E+02</rscale>
<asrwt>0</asrwt>
<pdfrwt beam="1">  1       21 0.10246769E-03 0.22537347E+02</pdfrwt>
<pdfrwt beam="2">  1       21 0.16136142E+00 0.22537347E+02</pdfrwt>
<totfact> 0.25535773E+07</totfact>
</mgrwt>
</event>
<event>
 4    1  0.7499963E+004  0.2032335E+02  0.7546771E-02  0.1738973E+00
         21   -1    0    0  503  502  0.00000000000E+00  0.00000000000E+00  0.97400838048E+00  0.97400838048E+00  0.00000000000E+00 0. -1.
         21   -1    0    0  501  503 -0.00000000000E+00 -0.00000000000E+00 -0.59160151908E+03  0.59160151908E+03  0.00000000000E+00 0. -1.
          3    1    1    2  501    0 -0.17663844947E+02  0.10051234700E+02 -0.45298747421E+03  0.45344315027E+03  0.00000000000E+00 0.  1.
         -3    1    1    2    0  502  0.17663844947E+02 -0.10051234700E+02 -0.13764003649E+03  0.13913237719E+03  0.00000000000E+00 0. -1.
<mgrwt>
<rscale>  2 0.20323354E+02</rscale>
<asrwt>0</asrwt>
<pdfrwt beam="1">  1       21 0.14984703E-03 0.20323354E+02</pdfrwt>
<pdfrwt beam="2">  1       21 0.91015867E-01 0.20323354E+02</pdfrwt>
<totfact> 0.53136856E+07</totfact>
</mgrwt>
</event>
<event>
 4    1  0.7499963E+004  0.2240265E+02  0.7546771E-02  0.1701380E+00
         21   -1    0    0  501  502  0.00000000000E+00  0.00000000000E+00  0.26473090253E+02  0.26473090253E+02  0.00000000000E+00 0.  1.
         21   -1    0    0  502  503 -0.00000000000E+00 -0.00000000000E+00 -0.19097689538E+02  0.19097689538E+02  0.00000000000E+00 0.  1.
          4    1    1    2  501    0 -0.35816574912E+00 -0.22399791216E+02  0.17395361008E+01  0.22470089343E+02  0.00000000000E+00 0.  1.
         -4    1    1    2    0  503  0.35816574912E+00  0.22399791216E+02  0.56358646142E+01  0.23100690448E+02  0.00000000000E+00 0. -1.
<mgrwt>
<rscale>  2 0.22402655E+02</rscale>
<asrwt>0</asrwt>
<pdfrwt beam="1">  1       21 0.40727831E-02 0.22402655E+02</pdfrwt>
<pdfrwt beam="2">  1       21 0.29381061E-02 0.22402655E+02</pdfrwt>
<totfact> 0.16254056E+08</totfact>
</mgrwt>
</event>
<event>
 4    1  0.7499963E+004  0.3080376E+02  0.7546771E-02  0.1589370E+00
         21   -1    0    0  501  502  0.00000000000E+00  0.00000000000E+00  0.15753129680E+02  0.15753129680E+02  0.00000000000E+00 0.  1.
         21   -1    0    0  502  503 -0.00000000000E+00 -0.00000000000E+00 -0.69094723111E+02  0.69094723111E+02  0.00000000000E+00 0.  1.
          5    1    1    2  501    0 -0.30729215690E+02 -0.21416937221E+01 -0.41863212459E+02  0.51974995010E+02  0.00000000000E+00 0. -1.
         -5    1    1    2    0  503  0.30729215690E+02  0.21416937221E+01 -0.11478380973E+02  0.32872857781E+02  0.00000000000E+00 0.  1.
<mgrwt>
<rscale>  2 0.30803759E+02</rscale>
<asrwt>0</asrwt>
<pdfrwt beam="1">  1       21 0.24235584E-02 0.30803759E+02</pdfrwt>
<pdfrwt beam="2">  1       21 0.10629957E-01 0.30803759E+02</pdfrwt>
<totfact> 0.50209545E+07</totfact>
</mgrwt>
</event>
<event>
 4    1  0.7499963E+004  0.3664202E+02  0.7546771E-02  0.1534484E+00
         21   -1    0    0  503  502  0.00000000000E+00  0.00000000000E+00  0.66440640863E+01  0.66440640863E+01  0.00000000000E+00 0. -1.
         21   -1    0    0  501  503 -0.00000000000E+00 -0.00000000000E+00 -0.31141129321E+03  0.31141129321E+03  0.00000000000E+00 0. -1.
          3    1    1    2  501    0 -0.29418708357E+01 -0.36523729823E+02 -0.58156412347E+02  0.68737222385E+02  0.00000000000E+00 0.  1.
         -3    1    1    2    0  502  0.29418708357E+01  0.36523729823E+02 -0.24661081678E+03  0.24931813492E+03  0.00000000000E+00 0. -1.
<mgrwt>
<rscale>  2 0.36642017E+02</rscale>
<asrwt>0</asrwt>
<pdfrwt beam="1">  1       21 0.10221636E-02 0.36642017E+02</pdfrwt>
<pdfrwt beam="2">  1       21 0.47909434E-01 0.36642017E+02</pdfrwt>
<totfact> 0.13001742E+07</totfact>
</mgrwt>
</event>
<event>
 4    1  0.7499963E+004  0.2377345E+02  0.7546771E-02  0.1679271E+00
         21   -1    0    0  503  502  0.00000000000E+00  0.00000000000E+00  0.53950439729E+01  0.53950439729E+01  0.00000000000E+00 0. -1.
         21   -1    0    0  501  503 -0.00000000000E+00 -0.00000000000E+00 -0.10556416189E+03  0.10556416189E+03  0.00000000000E+00 0. -1.
          3    1    1    2  501    0 -0.39525962362E+01  0.23442569276E+02 -0.54931119630E+02  0.59854865926E+02  0.00000000000E+00 0. -1.
         -3    1    1    2    0  502  0.39525962362E+01 -0.23442569276E+02 -0.45237998284E+02  0.51104339934E+02  0.00000000000E+00 0.  1.
<mgrwt>
<rscale>  2 0.23773453E+02</rscale>
<asrwt>0</asrwt>
<pdfrwt beam="1">  1       21 0.83000681E-03 0.23773453E+02</pdfrwt>
<pdfrwt beam="2">  1       21 0.16240639E-01 0.23773453E+02</pdfrwt>
<totfact> 0.11780587E+08</totfact>
</mgrwt>
</event>
<event>
 4    1  0.7499963E+004  0.2209121E+02  0.7546771E-02  0.1706679E+00
         21   -1    0    0  503  502  0.00000000000E+00  0.00000000000E+00  0.22072453500E+04  0.22072453500E+04  0.00000000000E+00 0. -1.
         21   -1    0    0  501  503 -0.00000000000E+00 -0.00000000000E+00 -0.22787676493E+00  0.22787676493E+00  0.00000000000E+00 0. -1.
          1    1    1    2  501    0 -0.17597361654E+02 -0.13354942423E+02  0.91316818630E+03  0.91343536066E+03  0.00000000000E+00 0. -1.
         -1    1    1    2    0  502  0.17597361654E+02  0.13354942423E+02  0.12938492870E+04  0.12940378662E+04  0.00000000000E+00 0.  1.
<mgrwt>
<rscale>  2 0.22091211E+02</rscale>
<asrwt>0</asrwt>
<pdfrwt beam="1">  1       21 0.33955909E+00 0.22091211E+02</pdfrwt>
<pdfrwt beam="2">  1       21 0.35059732E-04 0.22091211E+02</pdfrwt>
<totfact> 0.13708199E+07</totfact>
</mgrwt>
</event>
<event>
 4    1  0.7499963E+004  0.2074153E+02  0.7546771E-02  0.1730972E+00
         21   -1    0    0  503  502  0.00000000000E+00  0.00000000000E+00  0.17702236565E+04  0.17702236565E+04  0.00000000000E+00 0.  1.
         21   -1    0    0  501  503 -0.00000000000E+00 -0.00000000000E+00 -0.24320233808E+00  0.24320233808E+00  0.00000000000E+00 0.  1.
          5    1    1    2  501    0  0.44213084309E+01 -0.20264823552E+02  0.86117897938E+03  0.86142872344E+03  0.00000000000E+00 0. -1.
         -5    1    1    2    0  502 -0.44213084309E+01  0.20264823552E+02  0.90880147477E+03  0.90903813538E+03  0.00000000000E+00 0.  1.
<mgrwt>
<rscale>  2 0.20741529E+02</rscale>
<asrwt>0</asrwt>
<pdfrwt beam="1">  1       21 0.27233178E+00 0.20741529E+02</pdfrwt>
<pdfrwt beam="2">  1       21 0.37417162E-04 0.20741529E+02</pdfrwt>
<totfact> 0.26257310E+07</totfact>
</mgrwt>
</event>
<event>
 4    1  0.7499963E+004  0.2030183E+02  0.7546771E-02  0.1739392E+00
         21   -1    0    0  503  502  0.00000000000E+00  0.00000000000E+00  0.24228836947E+02  0.24228836947E+02  0.00000000000E+00 0. -1.
         21   -1    0    0  501  503 -0.00000000000E+00 -0.00000000000E+00 -0.17116197482E+02  0.17116197482E+02  0.00000000000E+00 0. -1.
          4    1    1    2  501    0  0.17480383196E+02 -0.10324749218E+02  0.51745960208E+01  0.20950911367E+02  0.00000000000E+00 0.  1.
         -4    1    1    2    0  502 -0.17480383196E+02  0.10324749218E+02  0.19380434443E+01  0.20394123063E+02  0.00000000000E+00 0. -1.
<mgrwt>
<rscale>  2 0.20301829E+02</rscale>
<asrwt>0</asrwt>
<pdfrwt beam="1">  1       21 0.37275134E-02 0.20301829E+02</pdfrwt>
<pdfrwt beam="2">  1       21 0.26332612E-02 0.20301829E+02</pdfrwt>
<totfact> 0.21447907E+08</totfact>
</mgrwt>
</event>
<event>
 4    1  0.7499963E+004  0.2129268E+02  0.7546771E-02  0.1720780E+00
         21   -1    0    0  501  502  0.00000000000E+00  0.00000000000E+00  0.99781616727E+02  0.99781616727E+02  0.00000000000E+00 0.  1.
         21   -1    0    0  502  503 -0.00000000000E+00 -0.00000000000E+00 -0.62863291720E+01  0.62863291720E+01  0.00000000000E+00 0.  1.
          2    1    1    2  501    0  0.17731085659E+02 -0.11789273940E+02  0.18824951777E+02  0.28421069439E+02  0.00000000000E+00 0. -1.
         -2    1    1    2    0  503 -0.17731085659E+02  0.11789273940E+02  0.74670335778E+02  0.77646876459E+02  0.00000000000E+00 0.  1.
<mgrwt>
<rscale>  2 0.21292684E+02</rscale>
<asrwt>0</asrwt>
<pdfrwt beam="1">  1       21 0.15351017E-01 0.21292684E+02</pdfrwt>
<pdfrwt beam="2">  1       21 0.96712764E-03 0.21292684E+02</pdfrwt>
<totfact> 0.10000133E+08</totfact>
</mgrwt>
</event>
<event>
 4    1  0.7499963E+004  0.3160087E+02  0.7546771E-02  0.1581039E+00
         21   -1    0    0  503  502  0.00000000000E+00  0.00000000000E+00  0.10434795007E+03  0.10434795007E+03  0.00000000000E+00 0. -1.
         21   -1    0    0  501  503 -0.00000000000E+00 -0.00000000000E+00 -0.96789540826E+01  0.96789540826E+01  0.00000000000E+00 0. -1.
          2    1    1    2  501    0 -0.14679664223E+02  0.27984328376E+02  0.41286888562E+02  0.51992521996E+02  0.00000000000E+00 0.  1.
         -2    1    1    2    0  502  0.14679664223E+02 -0.27984328376E+02  0.53382107424E+02  0.62034382155E+02  0.00000000000E+00 0. -1.
<mgrwt>
<rscale>  2 0.31600873E+02</rscale>
<asrwt>0</asrwt>
<pdfrwt beam="1">  1       21 0.16053530E-01 0.31600873E+02</pdfrwt>
<pdfrwt beam="2">  1       21 0.14890699E-02 0.31600873E+02</pdfrwt>
<totfact> 0.53120635E+07</totfact>
</mgrwt>
</event>
<event>
 4    1  0.7499963E+004  0.2220301E+02  0.7546771E-02  0.1704764E+00
         21   -1    0    0  503  502  0.00000000000E+00  0.00000000000E+00  0.96415306457E+02  0.96415306457E+02  0.00000000000E+00 0. -1.
         21   -1    0    0  501  503 -0.00000000000E+00 -0.00000000000E+00 -0.51196132534E+01  0.51196132534E+01  0.00000000000E+00 0. -1.
          4    1    1    2  501    0  0.20935606377E+02  0.73941962773E+01  0.47469194046E+02  0.52405134637E+02  0.00000000000E+00 0. -1.
         -4    1    1    2    0  502 -0.20935606377E+02 -0.73941962773E+01  0.43826499157E+02  0.49129785073E+02  0.00000000000E+00 0.  1.
<mgrwt>
<rscale>  2 0.22203012E+02</rscale>
<asrwt>0</asrwt>
<pdfrwt beam="1">  1       21 0.14833123E-01 0.22203012E+02</pdfrwt>
<pdfrwt beam="2">  1       21 0.78763288E-03 0.22203012E+02</pdfrwt>
<totfact> 0.14580156E+08</totfact>
</mgrwt>
</event>
<event>
 4    1  0.7499963E+004  0.3944751E+02  0.7546771E-02  0.1512317E+00
         21   -1    0    0  503  502  0.00000000000E+00  0.00000000000E+00  0.43204335133E+02  0.43204335133E+02  0.00000000000E+00 0. -1.
         21   -1    0    0  501  503 -0.00000000000E+00 -0.00000000000E+00 -0.11464113008E+03  0.11464113008E+03  0.00000000000E+00 0. -1.
          1    1    1    2  501    0  0.31274901167E+02  0.24041359346E+02  0.29641113951E+02  0.49342699951E+02  0.00000000000E+00 0.  1.
         -1    1    1    2    0  502 -0.31274901167E+02 -0.24041359346E+02 -0.10107790890E+03  0.10850276526E+03  0.00000000000E+00 0. -1.
<mgrwt>
<rscale>  2 0.39447515E+02</rscale>
<asrwt>0</asrwt>
<pdfrwt beam="1">  1       21 0.66468208E-02 0.39447515E+02</pdfrwt>
<pdfrwt beam="2">  1       21 0.17637097E-01 0.39447515E+02</pdfrwt>
<totfact> 0.43481780E+06</totfact>
</mgrwt>
</event>
<event>
 4    1  0.7499963E+004  0.5557603E+02  0.7546771E-02  0.1417394E+00
         21   -1    0    0  501  502  0.00000000000E+00  0.00000000000E+00  0.43332067108E+03  0.43332067108E+03  0.00000000000E+00 0.  1.
         21   -1    0    0  502  503 -0.00000000000E+00 -0.00000000000E+00 -0.71298144027E+01  0.71298144027E+01  0.00000000000E+00 0.  1.
          3    1    1    2  501    0 -0.41055791293E+02  0.37458199830E+02  0.20954891601E+03  0.21679354911E+03  0.00000000000E+00 0.  1.
         -3    1    1    2    0  503  0.41055791293E+02 -0.37458199830E+02  0.21664194067E+03  0.22365693638E+03  0.00000000000E+00 0. -1.
<mgrwt>
<rscale>  2 0.55576027E+02</rscale>
<asrwt>0</asrwt>
<pdfrwt beam="1">  1       21 0.66664698E-01 0.55576027E+02</pdfrwt>
<pdfrwt beam="2">  1       21 0.10968949E-02 0.55576027E+02</pdfrwt>
<totfact> 0.62406044E+06</totfact>
</mgrwt>
</event>
<event>
 4    1  0.7499963E+004  0.2493177E+02  0.7546771E-02  0.1661984E+00
         21   -1    0    0  503  502  0.00000000000E+00  0.00000000000E+00  0.22024153324E+03  0.22024153324E+03  0.00000000000E+00 0. -1.
         21   -1    0    0  501  503 -0.00000000000E+00 -0.00000000000E+00 -0.33584808881E+01  0.33584808881E+01  0.00000000000E+00 0. -1.
          4    1    1    2  501    0  0.81419923726E+00  0.24918466980E+02  0.63771477716E+02  0.68471850326E+02  0.00000000000E+00 0. -1.
         -4    1    1    2    0  502 -0.81419923726E+00 -0.24918466980E+02  0.15311157463E+03  0.15512816380E+03  0.00000000000E+00 0.  1.
<mgrwt>
<rscale>  2 0.24931765E+02</rscale>
<asrwt>0</asrwt>
<pdfrwt beam="1">  1       21 0.33883301E-01 0.24931765E+02</pdfrwt>
<pdfrwt beam="2">  1       21 0.51668954E-03 0.24931765E+02</pdfrwt>
<totfact> 0.65280361E+07</totfact>
</mgrwt>
</event>
<event>
 4    1  0.7499963E+004  0.2019943E+02  0.7546771E-02  0.1741391E+00
         21   -1    0    0  503  502  0.00000000000E+00  0.00000000000E+00  0.14800401059E+02  0.14800401059E+02  0.00000000000E+00 0.  1.
         21   -1    0    0  501  503 -0.00000000000E+00 -0.00000000000E+00 -0.27644877054E+02  0.27644877054E+02  0.00000000000E+00 0.  1.
          3    1    1    2  501    0  0.55071635668E+01  0.19434204459E+02 -0.75415424235E+01  0.21561354680E+02  0.00000000000E+00 0.  1.
         -3    1    1    2    0  502 -0.55071635668E+01 -0.19434204459E+02 -0.53029335720E+01  0.20883923433E+02  0.00000000000E+00 0. -1.
<mgrwt>
<rscale>  2 0.20199434E+02</rscale>
<asrwt>0</asrwt>
<pdfrwt beam="1">  1       21 0.22769848E-02 0.20199434E+02</pdfrwt>
<pdfrwt beam="2">  1       21 0.42530580E-02 0.20199434E+02</pdfrwt>
<totfact> 0.21774553E+08</totfact>
</mgrwt>
</event>
<event>
 4    1  0.7499963E+004  0.2297506E+02  0.7546771E-02  0.1691915E+00
         21   -1    0    0  503  502  0.00000000000E+00  0.00000000000E+00  0.23073329179E+02  0.23073329179E+02  0.00000000000E+00 0.  1.
         21   -1    0    0  501  503 -0.00000000000E+00 -0.00000000000E+00 -0.46968028803E+02  0.46968028803E+02  0.00000000000E+00 0.  1.
          3    1    1    2  501    0 -0.18638852324E+02  0.13433034596E+02  0.13133903780E+02  0.26464176975E+02  0.00000000000E+00 0. -1.
         -3    1    1    2    0  502  0.18638852324E+02 -0.13433034596E+02 -0.37028603404E+02  0.43577181007E+02  0.00000000000E+00 0.  1.
<mgrwt>
<rscale>  2 0.22975057E+02</rscale>
<asrwt>0</asrwt>
<pdfrwt beam="1">  1       21 0.35497429E-02 0.22975057E+02</pdfrwt>
<pdfrwt beam="2">  1       21 0.72258506E-02 0.22975057E+02</pdfrwt>
<totfact> 0.48753967E+07</totfact>
</mgrwt>
</event>
<event>
 4    1  0.7499963E+004  0.2730002E+02  0.7546771E-02  0.1630006E+00
         21   -1    0    0  503  502  0.00000000000E+00  0.00000000000E+00  0.27948053920E+02  0.27948053920E+02  0.00000000000E+00 0.  1.
         21   -1    0    0  501  503 -0.00000000000E+00 -0.00000000000E+00 -0.28663579318E+02  0.28663579318E+02  0.00000000000E+00 0.  1.
          3    1    1    2  501    0  0.25328260250E+02 -0.10186774241E+02 -0.78283074614E+01  0.28400238281E+02  0.00000000000E+00 0.  1.
         -3    1    1    2    0  502 -0.25328260250E+02  0.10186774241E+02  0.71127820642E+01  0.28211394957E+02  0.00000000000E+00 0. -1.
<mgrwt>
<rscale>  2 0.27300021E+02</rscale>
<asrwt>0</asrwt>
<pdfrwt beam="1">  1       21 0.42997006E-02 0.27300021E+02</pdfrwt>
<pdfrwt beam="2">  1       21 0.44097814E-02 0.27300021E+02</pdfrwt>
<totfact> 0.83240176E+07</totfact>
</mgrwt>
</event>
<event>
 4    1  0.7499963E+004  0.2608083E+02  0.7546771E-02  0.1645946E+00
         21   -1    0    0  501  502  0.00000000000E+00  0.00000000000E+00  0.36726599697E+03  0.36726599697E+03  0.00000000000E+00 0. -1.
         21   -1    0    0  502  503 -0.00000000000E+00 -0.00000000000E+00 -0.20580100318E+01  0.20580100318E+01  0.00000000000E+00 0. -1.
          3    1    1    2  501    0 -0.11673231410E+02  0.23322633732E+02  0.24101617121E+03  0.24242319270E+03  0.00000000000E+00 0. -1.
         -3    1    1    2    0  503  0.11673231410E+02 -0.23322633732E+02  0.12419181573E+03  0.12690081430E+03  0.00000000000E+00 0.  1.
<mgrwt>
<rscale>  2 0.26080828E+02</rscale>
<asrwt>0</asrwt>
<pdfrwt beam="1">  1       21 0.56502409E-01 0.26080828E+02</pdfrwt>
<pdfrwt beam="2">  1       21 0.31661722E-03 0.26080828E+02</pdfrwt>
<totfact> 0.50881066E+07</totfact>
</mgrwt>
</event>
<event>
 4    1  0.7499963E+004  0.2975767E+02  0.7546771E-02  0.1600783E+00
         21   -1    0    0  503  502  0.00000000000E+00  0.00000000000E+00  0.41537290587E+03  0.41537290587E+03  0.00000000000E+00 0. -1.
         21   -1    0    0  501  503 -0.00000000000E+00 -0.00000000000E+00 -0.21472740130E+01  0.21472740130E+01  0.00000000000E+00 0. -1.
          4    1    1    2  501    0  0.28053170550E+02  0.99266488129E+01  0.22429756088E+03  0.22626293234E+03  0.00000000000E+00 0. -1.
         -4    1    1    2    0  502 -0.28053170550E+02 -0.99266488129E+01  0.18892807098E+03  0.19125724755E+03  0.00000000000E+00 0.  1.
<mgrwt>
<rscale>  2 0.29757667E+02</rscale>
<asrwt>0</asrwt>
<pdfrwt beam="1">  1       21 0.63903460E-01 0.29757667E+02</pdfrwt>
<pdfrwt beam="2">  1       21 0.33035018E-03 0.29757667E+02</pdfrwt>
<totfact> 0.38314465E+07</totfact>
</mgrwt>
</event>
<event>
 4    1  0.7499963E+004  0.2911667E+02  0.7546771E-02  0.1608063E+00
         21   -1    0    0  503  502  0.00000000000E+00  0.00000000000E+00  0.22157820441E+01  0.22157820441E+01  0.00000000000E+00 0. -1.
         21   -1    0    0  501  503 -0.00000000000E+00 -0.00000000000E+00 -0.39892737093E+03  0.39892737093E+03  0.00000000000E+00 0. -1.
          2    1    1    2  501    0 -0.29100044273E+02  0.98372083265E+00 -0.15779111287E+03  0.16045502667E+03  0.00000000000E+00 0. -1.
         -2    1    1    2    0  502  0.29100044273E+02 -0.98372083265E+00 -0.23892047601E+03  0.24068812630E+03  0.00000000000E+00 0.  1.
<mgrwt>
<rscale>  2 0.29116667E+02</rscale>
<asrwt>0</asrwt>
<pdfrwt beam="1">  1       21 0.34088935E-03 0.29116667E+02</pdfrwt>
<pdfrwt beam="2">  1       21 0.61373477E-01 0.29116667E+02</pdfrwt>
<totfact> 0.39550384E+07</totfact>
</mgrwt>
</event>
<event>
 4    1  0.7499963E+004  0.2475474E+02  0.7546771E-02  0.1664550E+00
         21   -1    0    0  503  502  0.00000000000E+00  0.00000000000E+00  0.49882989358E+01  0.49882989358E+01  0.00000000000E+00 0. -1.
         21   -1    0    0  501  503 -0.00000000000E+00 -0.00000000000E+00 -0.15074707584E+03  0.15074707584E+03  0.00000000000E+00 0. -1.
          1    1    1    2  501    0 -0.12702749829E+02  0.21247055315E+02 -0.39380063081E+02  0.46514369619E+02  0.00000000000E+00 0. -1.
         -1    1    1    2    0  502  0.12702749829E+02 -0.21247055315E+02 -0.10637871382E+03  0.10922100515E+03  0.00000000000E+00 0.  1.
<mgrwt>
<rscale>  2 0.24754741E+02</rscale>
<asrwt>0</asrwt>
<pdfrwt beam="1">  1       21 0.76743074E-03 0.24754741E+02</pdfrwt>
<pdfrwt beam="2">  1       21 0.23191854E-01 0.24754741E+02</pdfrwt>
<totfact> 0.71913508E+07</totfact>
</mgrwt>
</event>
<event>
 4    1  0.7499963E+004  0.2264032E+02  0.7546771E-02  0.1697408E+00
         21   -1    0    0  503  502  0.00000000000E+00  0.00000000000E+00  0.32477048659E+01  0.32477048659E+01  0.00000000000E+00 0.  1.
         21   -1    0    0  501  503 -0.00000000000E+00 -0.00000000000E+00 -0.15799423438E+03  0.15799423438E+03  0.00000000000E+00 0.  1.
          5    1    1    2  501    0  0.22624373857E+02 -0.84968058424E+00 -0.74771488133E+02  0.78124001991E+02  0.00000000000E+00 0. -1.
         -5    1    1    2    0  502 -0.22624373857E+02  0.84968058424E+00 -0.79975041381E+02  0.83117937254E+02  0.00000000000E+00 0.  1.
<mgrwt>
<rscale>  2 0.22640324E+02</rscale>
<asrwt>0</asrwt>
<pdfrwt beam="1">  1       21 0.49964690E-03 0.22640324E+02</pdfrwt>
<pdfrwt beam="2">  1       21 0.24306805E-01 0.22640324E+02</pdfrwt>
<totfact> 0.12214518E+08</totfact>
</mgrwt>
</event>
<event>
 4    1  0.7499963E+004  0.4842442E+02  0.7546771E-02  0.1454030E+00
         21   -1    0    0  501  502  0.00000000000E+00  0.00000000000E+00  0.41759903064E+03  0.41759903064E+03  0.00000000000E+00 0.  1.
         21   -1    0    0  502  503 -0.00000000000E+00 -0.00000000000E+00 -0.59170334219E+01  0.59170334219E+01  0.00000000000E+00 0.  1.
          3    1    1    2  501    0 -0.35479346515E+02  0.32956642819E+02  0.25366359988E+03  0.25824435375E+03  0.00000000000E+00 0.  1.
         -3    1    1    2    0  503  0.35479346515E+02 -0.32956642819E+02  0.15801839733E+03  0.16527171032E+03  0.00000000000E+00 0. -1.
<mgrwt>
<rscale>  2 0.48424419E+02</rscale>
<asrwt>0</asrwt>
<pdfrwt beam="1">  1       21 0.64245981E-01 0.48424419E+02</pdfrwt>
<pdfrwt beam="2">  1       21 0.91031317E-03 0.48424419E+02</pdfrwt>
<totfact> 0.88701060E+06</totfact>
</mgrwt>
</event>
<event>
 4    1  0.7499963E+004  0.3735757E+02  0.7546771E-02  0.1528609E+00
         21   -1    0    0  503  502  0.00000000000E+00  0.00000000000E+00  0.65574534415E+02  0.65574534415E+02  0.00000000000E+00 0. -1.
         21   -1    0    0  501  503 -0.00000000000E+00 -0.00000000000E+00 -0.32941197956E+02  0.32941197956E+02  0.00000000000E+00 0. -1.
          5    1    1    2  501    0 -0.23277733613E+02  0.29218751395E+02  0.45620972322E+02  0.58964916949E+02  0.00000000000E+00 0.  1.
         -5    1    1    2    0  502  0.23277733613E+02 -0.29218751395E+02 -0.12987635863E+02  0.39550815422E+02  0.00000000000E+00 0. -1.
<mgrwt>
<rscale>  2 0.37357574E+02</rscale>
<asrwt>0</asrwt>
<pdfrwt beam="1">  1       21 0.10088390E-01 0.37357574E+02</pdfrwt>
<pdfrwt beam="2">  1       21 0.50678766E-02 0.37357574E+02</pdfrwt>
<totfact> 0.17599107E+07</totfact>
</mgrwt>
</event>
<event>
 4    1  0.7499963E+004  0.2246377E+02  0.7546771E-02  0.1700353E+00
         21   -1    0    0  503  502  0.00000000000E+00  0.00000000000E+00  0.31089725534E+02  0.31089725534E+02  0.00000000000E+00 0. -1.
         21   -1    0    0  501  503 -0.00000000000E+00 -0.00000000000E+00 -0.16927570216E+02  0.16927570216E+02  0.00000000000E+00 0. -1.
          5    1    1    2  501    0 -0.29626482622E+01 -0.22267544936E+02  0.22112042495E+01  0.22572334094E+02  0.00000000000E+00 0. -1.
         -5    1    1    2    0  502  0.29626482622E+01  0.22267544936E+02  0.11950951069E+02  0.25444961656E+02  0.00000000000E+00 0.  1.
<mgrwt>
<rscale>  2 0.22463767E+02</rscale>
<asrwt>0</asrwt>
<pdfrwt beam="1">  1       21 0.47830347E-02 0.22463767E+02</pdfrwt>
<pdfrwt beam="2">  1       21 0.26042416E-02 0.22463767E+02</pdfrwt>
<totfact> 0.15211623E+08</totfact>
</mgrwt>
</event>
<event>
 4    1  0.7499963E+004  0.5008058E+02  0.7546771E-02  0.1444907E+00
         21   -1    0    0  503  502  0.00000000000E+00  0.00000000000E+00  0.49518636666E+02  0.49518636666E+02  0.00000000000E+00 0.  1.
         21   -1    0    0  501  503 -0.00000000000E+00 -0.00000000000E+00 -0.53428960730E+02  0.53428960730E+02  0.00000000000E+00 0.  1.
          2    1    1    2  501    0 -0.78463730078E+01  0.49462093258E+02  0.97863863793E+01  0.51027811997E+02  0.00000000000E+00 0. -1.
         -2    1    1    2    0  502  0.78463730078E+01 -0.49462093258E+02 -0.13696710443E+02  0.51919785398E+02  0.00000000000E+00 0.  1.
<mgrwt>
<rscale>  2 0.50080577E+02</rscale>
<asrwt>0</asrwt>
<pdfrwt beam="1">  1       21 0.76182518E-02 0.50080577E+02</pdfrwt>
<pdfrwt beam="2">  1       21 0.82198401E-02 0.50080577E+02</pdfrwt>
<totfact> 0.13248699E+07</totfact>
</mgrwt>
</event>
<event>
 4    1  0.7499963E+004  0.2024088E+02  0.7546771E-02  0.1740580E+00
         21   -1    0    0  501  502  0.00000000000E+00  0.00000000000E+00  0.48212512201E+01  0.48212512201E+01  0.00000000000E+00 0.  1.
         21   -1    0    0  502  503 -0.00000000000E+00 -0.00000000000E+00 -0.95042484468E+02  0.95042484468E+02  0.00000000000E+00 0.  1.
          4    1    1    2  501    0 -0.13603635495E+02 -0.14987805319E+02 -0.61360354773E+02  0.64612586582E+02  0.00000000000E+00 0. -1.
         -4    1    1    2    0  503  0.13603635495E+02  0.14987805319E+02 -0.28860878475E+02  0.35251149107E+02  0.00000000000E+00 0.  1.
<mgrwt>
<rscale>  2 0.20240880E+02</rscale>
<asrwt>0</asrwt>
<pdfrwt beam="1">  1       21 0.74173104E-03 0.20240880E+02</pdfrwt>
<pdfrwt beam="2">  1       21 0.14621919E-01 0.20240880E+02</pdfrwt>
<totfact> 0.15884561E+08</totfact>
</mgrwt>
</event>
<event>
 4    1  0.7499963E+004  0.2092025E+02  0.7546771E-02  0.1727624E+00
         21   -1    0    0  503  502  0.00000000000E+00  0.00000000000E+00  0.44139379547E+02  0.44139379547E+02  0.00000000000E+00 0.  1.
         21   -1    0    0  501  503 -0.00000000000E+00 -0.00000000000E+00 -0.10362706711E+02  0.10362706711E+02  0.00000000000E+00 0.  1.
          1    1    1    2  501    0 -0.20020324672E+02 -0.60698881599E+01  0.11226223749E+02  0.23742052184E+02  0.00000000000E+00 0. -1.
         -1    1    1    2    0  502  0.20020324672E+02  0.60698881599E+01  0.22550449086E+02  0.30760034074E+02  0.00000000000E+00 0.  1.
<mgrwt>
<rscale>  2 0.20920252E+02</rscale>
<asrwt>0</asrwt>
<pdfrwt beam="1">  1       21 0.67906737E-02 0.20920252E+02</pdfrwt>
<pdfrwt beam="2">  1       21 0.15942626E-02 0.20920252E+02</pdfrwt>
<totfact> 0.18021298E+08</totfact>
</mgrwt>
</event>
<event>
 4    1  0.7499963E+004  0.2065177E+02  0.7546771E-02  0.1732669E+00
         21   -1    0    0  501  502  0.00000000000E+00  0.00000000000E+00  0.24176220366E+02  0.24176220366E+02  0.00000000000E+00 0.  1.
         21   -1    0    0  502  503 -0.00000000000E+00 -0.00000000000E+00 -0.24708241639E+02  0.24708241639E+02  0.00000000000E+00 0.  1.
          5    1    1    2  501    0 -0.16156496550E+02 -0.12863250021E+02  0.12805965202E+02  0.24299965568E+02  0.00000000000E+00 0.  1.
         -5    1    1    2    0  503  0.16156496550E+02  0.12863250021E+02 -0.13337986474E+02  0.24584496437E+02  0.00000000000E+00 0. -1.
<mgrwt>
<rscale>  2 0.20651769E+02</rscale>
<asrwt>0</asrwt>
<pdfrwt beam="1">  1       21 0.37194185E-02 0.20651769E+02</pdfrwt>
<pdfrwt beam="2">  1       21 0.38012679E-02 0.20651769E+02</pdfrwt>
<totfact> 0.12232443E+08</totfact>
</mgrwt>
</event>
<event>
 4    1  0.7499963E+004  0.2410258E+02  0.7546771E-02  0.1674237E+00
         21   -1    0    0  501  502  0.00000000000E+00  0.00000000000E+00  0.30304381796E+02  0.30304381796E+02  0.00000000000E+00 0.  1.
         21   -1    0    0  502  503 -0.00000000000E+00 -0.00000000000E+00 -0.21463376367E+02  0.21463376367E+02  0.00000000000E+00 0.  1.
          5    1    1    2  501    0 -0.55422634732E+01 -0.23456716704E+02  0.12881476910E+02  0.27328861855E+02  0.00000000000E+00 0.  1.
         -5    1    1    2    0  503  0.55422634732E+01  0.23456716704E+02 -0.40404714809E+01  0.24438896307E+02  0.00000000000E+00 0. -1.
<mgrwt>
<rscale>  2 0.24102578E+02</rscale>
<asrwt>0</asrwt>
<pdfrwt beam="1">  1       21 0.46622126E-02 0.24102578E+02</pdfrwt>
<pdfrwt beam="2">  1       21 0.33020579E-02 0.24102578E+02</pdfrwt>
<totfact> 0.11180483E+08</totfact>
</mgrwt>
</event>
<event>
 4    1  0.7499963E+004  0.2091747E+02  0.7546771E-02  0.1727675E+00
         21   -1    0    0  501  502  0.00000000000E+00  0.00000000000E+00  0.20925909344E+02  0.20925909344E+02  0.00000000000E+00 0. -1.
         21   -1    0    0  502  503 -0.00000000000E+00 -0.00000000000E+00 -0.21042169313E+02  0.21042169313E+02  0.00000000000E+00 0. -1.
          5    1    1    2  501    0  0.18663548129E+02 -0.94452285046E+01  0.16110550108E+01  0.20979415352E+02  0.00000000000E+00 0.  1.
         -5    1    1    2    0  503 -0.18663548129E+02  0.94452285046E+01 -0.17273149798E+01  0.20988663305E+02  0.00000000000E+00 0. -1.
<mgrwt>
<rscale>  2 0.20917466E+02</rscale>
<asrwt>0</asrwt>
<pdfrwt beam="1">  1       21 0.32193707E-02 0.20917466E+02</pdfrwt>
<pdfrwt beam="2">  1       21 0.32372568E-02 0.20917466E+02</pdfrwt>
<totfact> 0.19766644E+08</totfact>
</mgrwt>
</event>
<event>
 4    1  0.7499963E+004  0.2058421E+02  0.7546771E-02  0.1733954E+00
         21   -1    0    0  501  502  0.00000000000E+00  0.00000000000E+00  0.10245779095E+02  0.10245779095E+02  0.00000000000E+00 0. -1.
         21   -1    0    0  502  503 -0.00000000000E+00 -0.00000000000E+00 -0.42438317017E+02  0.42438317017E+02  0.00000000000E+00 0. -1.
          5    1    1    2  501    0  0.20159378891E+02 -0.41604394352E+01 -0.20305802116E+02  0.28914276977E+02  0.00000000000E+00 0.  1.
         -5    1    1    2    0  503 -0.20159378891E+02  0.41604394352E+01 -0.11886735807E+02  0.23769819135E+02  0.00000000000E+00 0. -1.
<mgrwt>
<rscale>  2 0.20584213E+02</rscale>
<asrwt>0</asrwt>
<pdfrwt beam="1">  1       21 0.15762737E-02 0.20584213E+02</pdfrwt>
<pdfrwt beam="2">  1       21 0.65289719E-02 0.20584213E+02</pdfrwt>
<totfact> 0.19430261E+08</totfact>
</mgrwt>
</event>
<event>
 4    1  0.7499963E+004  0.2315826E+02  0.7546771E-02  0.1688958E+00
         21   -1    0    0  503  502  0.00000000000E+00  0.00000000000E+00  0.19943818046E+01  0.19943818046E+01  0.00000000000E+00 0.  1.
         21   -1    0    0  501  503 -0.00000000000E+00 -0.00000000000E+00 -0.27946525375E+03  0.27946525375E+03  0.00000000000E+00 0.  1.
          3    1    1    2  501    0 -0.17722165914E+02 -0.14907369845E+02 -0.11138264572E+03  0.11376466327E+03  0.00000000000E+00 0.  1.
         -3    1    1    2    0  502  0.17722165914E+02  0.14907369845E+02 -0.16608822622E+03  0.16769497229E+03  0.00000000000E+00 0. -1.
<mgrwt>
<rscale>  2 0.23158256E+02</rscale>
<asrwt>0</asrwt>
<pdfrwt beam="1">  1       21 0.30682801E-03 0.23158256E+02</pdfrwt>
<pdfrwt beam="2">  1       21 0.42994648E-01 0.23158256E+02</pdfrwt>
<totfact> 0.88144702E+07</totfact>
</mgrwt>
</event>
<event>
 4    1  0.7499963E+004  0.2662320E+02  0.7546771E-02  0.1638725E+00
         21   -1    0    0  501  502  0.00000000000E+00  0.00000000000E+00  0.20618637768E+02  0.20618637768E+02  0.00000000000E+00 0.  1.
         21   -1    0    0  502  503 -0.00000000000E+00 -0.00000000000E+00 -0.34382210811E+02  0.34382210811E+02  0.00000000000E+00 0.  1.
          1    1    1    2  501    0  0.24799189143E+02 -0.96847772193E+01 -0.72390710540E+01  0.27589832215E+02  0.00000000000E+00 0.  1.
         -1    1    1    2    0  503 -0.24799189143E+02  0.96847772193E+01 -0.65245019886E+01  0.27411016364E+02  0.00000000000E+00 0. -1.
<mgrwt>
<rscale>  2 0.26623198E+02</rscale>
<asrwt>0</asrwt>
<pdfrwt beam="1">  1       21 0.31720981E-02 0.26623198E+02</pdfrwt>
<pdfrwt beam="2">  1       21 0.52895709E-02 0.26623198E+02</pdfrwt>
<totfact> 0.99970485E+07</totfact>
</mgrwt>
</event>
<event>
 4    1  0.7499963E+004  0.2426896E+02  0.7546771E-02  0.1671730E+00
         21   -1    0    0  503  502  0.00000000000E+00  0.00000000000E+00  0.96634115096E+01  0.96634115096E+01  0.00000000000E+00 0. -1.
         21   -1    0    0  501  503 -0.00000000000E+00 -0.00000000000E+00 -0.13540835973E+03  0.13540835973E+03  0.00000000000E+00 0. -1.
          5    1    1    2  501    0  0.23630360469E+02 -0.55306684920E+01 -0.90841854406E+01  0.25913406858E+02  0.00000000000E+00 0.  1.
         -5    1    1    2    0  502 -0.23630360469E+02  0.55306684920E+01 -0.11666076278E+03  0.11915836438E+03  0.00000000000E+00 0. -1.
<mgrwt>
<rscale>  2 0.24268956E+02</rscale>
<asrwt>0</asrwt>
<pdfrwt beam="1">  1       21 0.14866787E-02 0.24268956E+02</pdfrwt>
<pdfrwt beam="2">  1       21 0.20832055E-01 0.24268956E+02</pdfrwt>
<totfact> 0.31908292E+07</totfact>
</mgrwt>
</event>
<event>
 4    1  0.7499963E+004  0.2286330E+02  0.7546771E-02  0.1693736E+00
         21   -1    0    0  501  502  0.00000000000E+00  0.00000000000E+00  0.12821896014E+01  0.12821896014E+01  0.00000000000E+00 0. -1.
         21   -1    0    0  502  503 -0.00000000000E+00 -0.00000000000E+00 -0.44991399519E+03  0.44991399519E+03  0.00000000000E+00 0. -1.
          1    1    1    2  501    0 -0.19288699695E+02 -0.12275029844E+02 -0.15520083584E+03  0.15687584180E+03  0.00000000000E+00 0. -1.
         -1    1    1    2    0  503  0.19288699695E+02  0.12275029844E+02 -0.29343096975E+03  0.29432034299E+03  0.00000000000E+00 0.  1.
<mgrwt>
<rscale>  2 0.22863296E+02</rscale>
<asrwt>0</asrwt>
<pdfrwt beam="1">  1       21 0.19725981E-03 0.22863296E+02</pdfrwt>
<pdfrwt beam="2">  1       21 0.69217584E-01 0.22863296E+02</pdfrwt>
<totfact> 0.65236034E+07</totfact>
</mgrwt>
</event>
<event>
 4    1  0.7499963E+004  0.2684588E+02  0.7546771E-02  0.1635822E+00
         21   -1    0    0  503  502  0.00000000000E+00  0.00000000000E+00  0.27094316485E+03  0.27094316485E+03  0.00000000000E+00 0.  1.
         21   -1    0    0  501  503 -0.00000000000E+00 -0.00000000000E+00 -0.26608347764E+01  0.26608347764E+01  0.00000000000E+00 0.  1.
          1    1    1    2  501    0  0.16343721061E+02  0.21297516767E+02  0.13167886627E+03  0.13438759340E+03  0.00000000000E+00 0.  1.
         -1    1    1    2    0  502 -0.16343721061E+02 -0.21297516767E+02  0.13660346380E+03  0.13921640622E+03  0.00000000000E+00 0. -1.
<mgrwt>
<rscale>  2 0.26845883E+02</rscale>
<asrwt>0</asrwt>
<pdfrwt beam="1">  1       21 0.41683542E-01 0.26845883E+02</pdfrwt>
<pdfrwt beam="2">  1       21 0.40935941E-03 0.26845883E+02</pdfrwt>
<totfact> 0.63471714E+07</totfact>
</mgrwt>
</event>
<event>
 4    1  0.7499963E+004  0.2784706E+02  0.7546771E-02  0.1623183E+00
         21   -1    0    0  501  502  0.00000000000E+00  0.00000000000E+00  0.92776875493E+00  0.92776875493E+00  0.00000000000E+00 0.  1.
         21   -1    0    0  502  503 -0.00000000000E+00 -0.00000000000E+00 -0.90510328518E+03  0.90510328518E+03  0.00000000000E+00 0.  1.
          2    1    1    2  501    0  0.23950959131E+02 -0.14205986812E+02 -0.32676161212E+03  0.32794604687E+03  0.00000000000E+00 0. -1.
         -2    1    1    2    0  503 -0.23950959131E+02  0.14205986812E+02 -0.57741390430E+03  0.57808500706E+03  0.00000000000E+00 0.  1.
<mgrwt>
<rscale>  2 0.27847056E+02</rscale>
<asrwt>0</asrwt>
<pdfrwt beam="1">  1       21 0.14273332E-03 0.27847056E+02</pdfrwt>
<pdfrwt beam="2">  1       21 0.13924699E+00 0.27847056E+02</pdfrwt>
<totfact> 0.23372486E+07</totfact>
</mgrwt>
</event>
<event>
 4    1  0.7499963E+004  0.2502699E+02  0.7546771E-02  0.1660615E+00
         21   -1    0    0  503  502  0.00000000000E+00  0.00000000000E+00  0.40029166498E+01  0.40029166498E+01  0.00000000000E+00 0.  1.
         21   -1    0    0  501  503 -0.00000000000E+00 -0.00000000000E+00 -0.36069524803E+03  0.36069524803E+03  0.00000000000E+00 0.  1.
          2    1    1    2  501    0  0.20712549220E+02 -0.14047798379E+02 -0.41136603689E+02  0.48151536814E+02  0.00000000000E+00 0.  1.
         -2    1    1    2    0  502 -0.20712549220E+02  0.14047798379E+02 -0.31555572769E+03  0.31654662787E+03  0.00000000000E+00 0. -1.
<mgrwt>
<rscale>  2 0.25026992E+02</rscale>
<asrwt>0</asrwt>
<pdfrwt beam="1">  1       21 0.61583310E-03 0.25026992E+02</pdfrwt>
<pdfrwt beam="2">  1       21 0.55491597E-01 0.25026992E+02</pdfrwt>
<totfact> 0.19595491E+07</totfact>
</mgrwt>
</event>
<event>
 4    1  0.7499963E+004  0.2108682E+02  0.7546771E-02  0.1724541E+00
         21   -1    0    0  501  502  0.00000000000E+00  0.00000000000E+00  0.29680181105E+01  0.29680181105E+01  0.00000000000E+00 0.  1.
         21   -1    0    0  502  503 -0.00000000000E+00 -0.00000000000E+00 -0.16145125989E+03  0.16145125989E+03  0.00000000000E+00 0.  1.
          3    1    1    2  501    0  0.45736498255E+01  0.20584843559E+02 -0.57171431344E+02  0.60936250451E+02  0.00000000000E+00 0. -1.
         -3    1    1    2    0  503 -0.45736498255E+01 -0.20584843559E+02 -0.10131181043E+03  0.10348302755E+03  0.00000000000E+00 0.  1.
<mgrwt>
<rscale>  2 0.21086822E+02</rscale>
<asrwt>0</asrwt>
<pdfrwt beam="1">  1       21 0.45661829E-03 0.21086822E+02</pdfrwt>
<pdfrwt beam="2">  1       21 0.24838649E-01 0.21086822E+02</pdfrwt>
<totfact> 0.13149224E+08</totfact>
</mgrwt>
</event>
<event>
 4    1  0.7499963E+004  0.3268263E+02  0.7546771E-02  0.1570198E+00
         21   -1    0    0  501  502  0.00000000000E+00  0.00000000000E+00  0.20168744994E+02  0.20168744994E+02  0.00000000000E+00 0. -1.
         21   -1    0    0  502  503 -0.00000000000E+00 -0.00000000000E+00 -0.73607668256E+02  0.73607668256E+02  0.00000000000E+00 0. -1.
          5    1    1    2  501    0  0.32038743962E+02  0.64554837223E+01 -0.18865069830E+01  0.32737032446E+02  0.00000000000E+00 0.  1.
         -5    1    1    2    0  503 -0.32038743962E+02 -0.64554837223E+01 -0.51552416280E+02  0.61039380805E+02  0.00000000000E+00 0. -1.
<mgrwt>
<rscale>  2 0.32682631E+02</rscale>
<asrwt>0</asrwt>
<pdfrwt beam="1">  1       21 0.31028839E-02 0.32682631E+02</pdfrwt>
<pdfrwt beam="2">  1       21 0.11324256E-01 0.32682631E+02</pdfrwt>
<totfact> 0.30991083E+07</totfact>
</mgrwt>
</event>
<event>
 4    1  0.7499963E+004  0.2056470E+02  0.7546771E-02  0.1734326E+00
         21   -1    0    0  501  502  0.00000000000E+00  0.00000000000E+00  0.88822409796E+03  0.88822409796E+03  0.00000000000E+00 0.  1.
         21   -1    0    0  502  503 -0.00000000000E+00 -0.00000000000E+00 -0.53687319453E+00  0.53687319453E+00  0.00000000000E+00 0.  1.
          4    1    1    2  501    0  0.11059475734E+02 -0.17337678161E+02  0.29436460101E+03  0.29508206556E+03  0.00000000000E+00 0. -1.
         -4    1    1    2    0  503 -0.11059475734E+02  0.17337678161E+02  0.59332262376E+03  0.59367890560E+03  0.00000000000E+00 0.  1.
<mgrwt>
<rscale>  2 0.20564705E+02</rscale>
<asrwt>0</asrwt>
<pdfrwt beam="1">  1       21 0.13664869E+00 0.20564705E+02</pdfrwt>
<pdfrwt beam="2">  1       21 0.82596587E-04 0.20564705E+02</pdfrwt>
<totfact> 0.50385483E+07</totfact>
</mgrwt>
</event>
<event>
 4    1  0.7499963E+004  0.2594608E+02  0.7546771E-02  0.1647773E+00
         21   -1    0    0  501  502  0.00000000000E+00  0.00000000000E+00  0.31989989174E+01  0.31989989174E+01  0.00000000000E+00 0.  1.
         21   -1    0    0  502  503 -0.00000000000E+00 -0.00000000000E+00 -0.34980789150E+03  0.34980789150E+03  0.00000000000E+00 0.  1.
          5    1    1    2  501    0 -0.18134579577E+02  0.18556297735E+02 -0.61895809778E+02  0.67114010684E+02  0.00000000000E+00 0.  1.
         -5    1    1    2    0  503  0.18134579577E+02 -0.18556297735E+02 -0.28471308281E+03  0.28589287974E+03  0.00000000000E+00 0. -1.
<mgrwt>
<rscale>  2 0.25946082E+02</rscale>
<asrwt>0</asrwt>
<pdfrwt beam="1">  1       21 0.49215370E-03 0.25946082E+02</pdfrwt>
<pdfrwt beam="2">  1       21 0.53816597E-01 0.25946082E+02</pdfrwt>
<totfact> 0.29237760E+07</totfact>
</mgrwt>
</event>
<event>
 4    1  0.7499963E+004  0.2124763E+02  0.7546771E-02  0.1721598E+00
         21   -1    0    0  501  502  0.00000000000E+00  0.00000000000E+00  0.28832242154E+02  0.28832242154E+02  0.00000000000E+00 0.  1.
         21   -1    0    0  502  503 -0.00000000000E+00 -0.00000000000E+00 -0.18452929207E+02  0.18452929207E+02  0.00000000000E+00 0.  1.
          1    1    1    2  501    0 -0.18720596055E+02 -0.10049921078E+02 -0.40112479632E+01  0.21622944770E+02  0.00000000000E+00 0. -1.
         -1    1    1    2    0  503  0.18720596055E+02  0.10049921078E+02  0.14390560910E+02  0.25662226591E+02  0.00000000000E+00 0.  1.
<mgrwt>
<rscale>  2 0.21247626E+02</rscale>
<asrwt>0</asrwt>
<pdfrwt beam="1">  1       21 0.44357296E-02 0.21247626E+02</pdfrwt>
<pdfrwt beam="2">  1       21 0.28389122E-02 0.21247626E+02</pdfrwt>
<totfact> 0.14741651E+08</totfact>
</mgrwt>
</event>
<event>
 4    1  0.7499963E+004  0.2746197E+02  0.7546771E-02  0.1627966E+00
         21   -1    0    0  503  502  0.00000000000E+00  0.00000000000E+00  0.10677021908E+02  0.10677021908E+02  0.00000000000E+00 0. -1.
         21   -1    0    0  501  503 -0.00000000000E+00 -0.00000000000E+00 -0.73752405983E+02  0.73752405983E+02  0.00000000000E+00 0. -1.
          4    1    1    2  501    0 -0.22134713996E+02 -0.16254667379E+02 -0.40218267948E+02  0.48699782875E+02  0.00000000000E+00 0. -1.
         -4    1    1    2    0  502  0.22134713996E+02  0.16254667379E+02 -0.22857116127E+02  0.35729645016E+02  0.00000000000E+00 0.  1.
<mgrwt>
<rscale>  2 0.27461970E+02</rscale>
<asrwt>0</asrwt>
<pdfrwt beam="1">  1       21 0.16426187E-02 0.27461970E+02</pdfrwt>
<pdfrwt beam="2">  1       21 0.11346524E-01 0.27461970E+02</pdfrwt>
<totfact> 0.79967677E+07</totfact>
</mgrwt>
</event>
<event>
 4    1  0.7499963E+004  0.2443948E+02  0.7546771E-02  0.1669186E+00
         21   -1    0    0  501  502  0.00000000000E+00  0.00000000000E+00  0.86864389307E+02  0.86864389307E+02  0.00000000000E+00 0.  1.
         21   -1    0    0  502  503 -0.00000000000E+00 -0.00000000000E+00 -0.77250117184E+01  0.77250117184E+01  0.00000000000E+00 0.  1.
          3    1    1    2  501    0 -0.18956026366E+02  0.15425868501E+02  0.55247801992E+02  0.60411985396E+02  0.00000000000E+00 0.  1.
         -3    1    1    2    0  503  0.18956026366E+02 -0.15425868501E+02  0.23891575596E+02  0.34177415629E+02  0.00000000000E+00 0. -1.
<mgrwt>
<rscale>  2 0.24439484E+02</rscale>
<asrwt>0</asrwt>
<pdfrwt beam="1">  1       21 0.13363752E-01 0.24439484E+02</pdfrwt>
<pdfrwt beam="2">  1       21 0.11884634E-02 0.24439484E+02</pdfrwt>
<totfact> 0.96445769E+07</totfact>
</mgrwt>
</event>
<event>
 4    1  0.7499963E+004  0.2126041E+02  0.7546771E-02  0.1721366E+00
         21   -1    0    0  503  502  0.00000000000E+00  0.00000000000E+00  0.19568981071E+03  0.19568981071E+03  0.00000000000E+00 0. -1.
         21   -1    0    0  501  503 -0.00000000000E+00 -0.00000000000E+00 -0.25168193270E+01  0.25168193270E+01  0.00000000000E+00 0. -1.
          5    1    1    2  501    0 -0.20648551920E+02  0.50638246714E+01  0.68163889411E+02  0.71402526820E+02  0.00000000000E+00 0. -1.
         -5    1    1    2    0  502  0.20648551920E+02 -0.50638246714E+01  0.12500910197E+03  0.12680410322E+03  0.00000000000E+00 0.  1.
<mgrwt>
<rscale>  2 0.21260410E+02</rscale>
<asrwt>0</asrwt>
<pdfrwt beam="1">  1       21 0.30106113E-01 0.21260410E+02</pdfrwt>
<pdfrwt beam="2">  1       21 0.38720313E-03 0.21260410E+02</pdfrwt>
<totfact> 0.11884121E+08</totfact>
</mgrwt>
</event>
<event>
 4    1  0.7499963E+004  0.2464907E+02  0.7546771E-02  0.1666094E+00
         21   -1    0    0  503  502  0.00000000000E+00  0.00000000000E+00  0.27409035134E+03  0.27409035134E+03  0.00000000000E+00 0.  1.
         21   -1    0    0  501  503 -0.00000000000E+00 -0.00000000000E+00 -0.22534817452E+01  0.22534817452E+01  0.00000000000E+00 0.  1.
          5    1    1    2  501    0  0.24561401244E+02  0.20770669226E+01  0.11826631185E+03  0.12080768666E+03  0.00000000000E+00 0.  1.
         -5    1    1    2    0  502 -0.24561401244E+02 -0.20770669226E+01  0.15357055774E+03  0.15553614642E+03  0.00000000000E+00 0. -1.
<mgrwt>
<rscale>  2 0.24649070E+02</rscale>
<asrwt>0</asrwt>
<pdfrwt beam="1">  1       21 0.42167720E-01 0.24649070E+02</pdfrwt>
<pdfrwt beam="2">  1       21 0.34668972E-03 0.24649070E+02</pdfrwt>
<totfact> 0.77718132E+07</totfact>
</mgrwt>
</event>
<event>
 4    1  0.7499963E+004  0.2528868E+02  0.7546771E-02  0.1656890E+00
         21   -1    0    0  501  502  0.00000000000E+00  0.00000000000E+00  0.68222368380E+01  0.68222368380E+01  0.00000000000E+00 0.  1.
         21   -1    0    0  502  503 -0.00000000000E+00 -0.00000000000E+00 -0.98303900013E+02  0.98303900013E+02  0.00000000000E+00 0.  1.
          4    1    1    2  501    0  0.73238907721E+00 -0.25278069981E+02 -0.57066354777E+02  0.62418635544E+02  0.00000000000E+00 0. -1.
         -4    1    1    2    0  503 -0.73238907721E+00  0.25278069981E+02 -0.34415308398E+02  0.42707501306E+02  0.00000000000E+00 0.  1.
<mgrwt>
<rscale>  2 0.25288678E+02</rscale>
<asrwt>0</asrwt>
<pdfrwt beam="1">  1       21 0.10495750E-02 0.25288678E+02</pdfrwt>
<pdfrwt beam="2">  1       21 0.15123675E-01 0.25288678E+02</pdfrwt>
<totfact> 0.95117270E+07</totfact>
</mgrwt>
</event>
<event>
 4    1  0.7499963E+004  0.3467095E+02  0.7546771E-02  0.1551542E+00
         21   -1    0    0  501  502  0.00000000000E+00  0.00000000000E+00  0.51488202821E+03  0.51488202821E+03  0.00000000000E+00 0.  1.
         21   -1    0    0  502  503 -0.00000000000E+00 -0.00000000000E+00 -0.23598429475E+01  0.23598429475E+01  0.00000000000E+00 0.  1.
          4    1    1    2  501    0 -0.16564819885E+02  0.30457859709E+02  0.28297733715E+03  0.28509340191E+03  0.00000000000E+00 0. -1.
         -4    1    1    2    0  503  0.16564819885E+02 -0.30457859709E+02  0.22954484811E+03  0.23214846924E+03  0.00000000000E+00 0.  1.
<mgrwt>
<rscale>  2 0.34670946E+02</rscale>
<asrwt>0</asrwt>
<pdfrwt beam="1">  1       21 0.79212530E-01 0.34670946E+02</pdfrwt>
<pdfrwt beam="2">  1       21 0.36305317E-03 0.34670946E+02</pdfrwt>
<totfact> 0.21857552E+07</totfact>
</mgrwt>
</event>
<event>
 4    1  0.7499963E+004  0.2391133E+02  0.7546771E-02  0.1677150E+00
         21   -1    0    0  503  502  0.00000000000E+00  0.00000000000E+00  0.42169553335E+02  0.42169553335E+02  0.00000000000E+00 0. -1.
         21   -1    0    0  501  503 -0.00000000000E+00 -0.00000000000E+00 -0.13735537723E+02  0.13735537723E+02  0.00000000000E+00 0. -1.
          1    1    1    2  501    0 -0.22492418824E+02  0.81143601115E+01  0.11042678727E+02  0.26338042791E+02  0.00000000000E+00 0.  1.
         -1    1    1    2    0  502  0.22492418824E+02 -0.81143601115E+01  0.17391336885E+02  0.29567048267E+02  0.00000000000E+00 0. -1.
<mgrwt>
<rscale>  2 0.23911331E+02</rscale>
<asrwt>0</asrwt>
<pdfrwt beam="1">  1       21 0.64876235E-02 0.23911331E+02</pdfrwt>
<pdfrwt beam="2">  1       21 0.21131597E-02 0.23911331E+02</pdfrwt>
<totfact> 0.13136356E+08</totfact>
</mgrwt>
</event>
<event>
 4    1  0.7499963E+004  0.2300476E+02  0.7546771E-02  0.1691433E+00
         21   -1    0    0  503  502  0.00000000000E+00  0.00000000000E+00  0.65236723923E+01  0.65236723923E+01  0.00000000000E+00 0.  1.
         21   -1    0    0  501  503 -0.00000000000E+00 -0.00000000000E+00 -0.91078963992E+02  0.91078963992E+02  0.00000000000E+00 0.  1.
          3    1    1    2  501    0 -0.13673264852E+02  0.18500297143E+02 -0.58412555620E+02  0.62779342304E+02  0.00000000000E+00 0.  1.
         -3    1    1    2    0  502  0.13673264852E+02 -0.18500297143E+02 -0.26142735980E+02  0.34823294080E+02  0.00000000000E+00 0. -1.
<mgrwt>
<rscale>  2 0.23004764E+02</rscale>
<asrwt>0</asrwt>
<pdfrwt beam="1">  1       21 0.10036419E-02 0.23004764E+02</pdfrwt>
<pdfrwt beam="2">  1       21 0.14012149E-01 0.23004764E+02</pdfrwt>
<totfact> 0.11290484E+08</totfact>
</mgrwt>
</event>
<event>
 4    1  0.7499963E+004  0.3021291E+02  0.7546771E-02  0.1595747E+00
         21   -1    0    0  503  502  0.00000000000E+00  0.00000000000E+00  0.40984199536E+01  0.40984199536E+01  0.00000000000E+00 0. -1.
         21   -1    0    0  501  503 -0.00000000000E+00 -0.00000000000E+00 -0.22817637495E+03  0.22817637495E+03  0.00000000000E+00 0. -1.
          1    1    1    2  501    0 -0.21277400445E+02  0.21449763772E+02 -0.94087750517E+02  0.98819658636E+02  0.00000000000E+00 0.  1.
         -1    1    1    2    0  502  0.21277400445E+02 -0.21449763772E+02 -0.12999020448E+03  0.13345513627E+03  0.00000000000E+00 0. -1.
<mgrwt>
<rscale>  2 0.30212913E+02</rscale>
<asrwt>0</asrwt>
<pdfrwt beam="1">  1       21 0.63052639E-03 0.30212913E+02</pdfrwt>
<pdfrwt beam="2">  1       21 0.35104044E-01 0.30212913E+02</pdfrwt>
<totfact> 0.47419320E+07</totfact>
</mgrwt>
</event>
<event>
 4    1  0.7499963E+004  0.2060459E+02  0.7546771E-02  0.1733566E+00
         21   -1    0    0  503  502  0.00000000000E+00  0.00000000000E+00  0.27336047262E+03  0.27336047262E+03  0.00000000000E+00 0.  1.
         21   -1    0    0  501  503 -0.00000000000E+00 -0.00000000000E+00 -0.19657113102E+01  0.19657113102E+01  0.00000000000E+00 0.  1.
          1    1    1    2  501    0  0.14929946865E+02  0.14200203758E+02  0.19877013369E+03  0.19983521998E+03  0.00000000000E+00 0.  1.
         -1    1    1    2    0  502 -0.14929946865E+02 -0.14200203758E+02  0.72624627626E+02  0.75490963949E+02  0.00000000000E+00 0. -1.
<mgrwt>
<rscale>  2 0.20604589E+02</rscale>
<asrwt>0</asrwt>
<pdfrwt beam="1">  1       21 0.42055427E-01 0.20604589E+02</pdfrwt>
<pdfrwt beam="2">  1       21 0.30241734E-03 0.20604589E+02</pdfrwt>
<totfact> 0.91023863E+07</totfact>
</mgrwt>
</event>
<event>
 4    1  0.7499963E+004  0.2064690E+02  0.7546771E-02  0.1732762E+00
         21   -1    0    0  503  502  0.00000000000E+00  0.00000000000E+00  0.13233685969E+01  0.13233685969E+01  0.00000000000E+00 0. -1.
         21   -1    0    0  501  503 -0.00000000000E+00 -0.00000000000E+00 -0.32826333357E+03  0.32826333357E+03  0.00000000000E+00 0. -1.
          5    1    1    2  501    0  0.20056072895E+02  0.49039026540E+01 -0.18599894124E+03  0.18714139163E+03  0.00000000000E+00 0. -1.
         -5    1    1    2    0  502 -0.20056072895E+02 -0.49039026540E+01 -0.14094102373E+03  0.14244531053E+03  0.00000000000E+00 0.  1.
<mgrwt>
<rscale>  2 0.20646896E+02</rscale>
<asrwt>0</asrwt>
<pdfrwt beam="1">  1       21 0.20359530E-03 0.20646896E+02</pdfrwt>
<pdfrwt beam="2">  1       21 0.50502019E-01 0.20646896E+02</pdfrwt>
<totfact> 0.11370881E+08</totfact>
</mgrwt>
</event>
<event>
 4    1  0.7499963E+004  0.2720611E+02  0.7546771E-02  0.1631197E+00
         21   -1    0    0  503  502  0.00000000000E+00  0.00000000000E+00  0.72395696053E+02  0.72395696053E+02  0.00000000000E+00 0.  1.
         21   -1    0    0  501  503 -0.00000000000E+00 -0.00000000000E+00 -0.10853088824E+02  0.10853088824E+02  0.00000000000E+00 0.  1.
          2    1    1    2  501    0  0.20957477741E+02  0.17348105151E+02  0.40792783117E+02  0.49032884680E+02  0.00000000000E+00 0.  1.
         -2    1    1    2    0  502 -0.20957477741E+02 -0.17348105151E+02  0.20749824113E+02  0.34215900197E+02  0.00000000000E+00 0. -1.
<mgrwt>
<rscale>  2 0.27206114E+02</rscale>
<asrwt>0</asrwt>
<pdfrwt beam="1">  1       21 0.11137799E-01 0.27206114E+02</pdfrwt>
<pdfrwt beam="2">  1       21 0.16697060E-02 0.27206114E+02</pdfrwt>
<totfact> 0.80266754E+07</totfact>
</mgrwt>
</event>
<event>
 4    1  0.7499963E+004  0.2076413E+02  0.7546771E-02  0.1730546E+00
         21   -1    0    0  503  502  0.00000000000E+00  0.00000000000E+00  0.36571039581E+03  0.36571039581E+03  0.00000000000E+00 0.  1.
         21   -1    0    0  501  503 -0.00000000000E+00 -0.00000000000E+00 -0.13937736054E+01  0.13937736054E+01  0.00000000000E+00 0.  1.
          3    1    1    2  501    0  0.86243829147E+01  0.18888327644E+02  0.11009419831E+03  0.11203517932E+03  0.00000000000E+00 0. -1.
         -3    1    1    2    0  502 -0.86243829147E+01 -0.18888327644E+02  0.25422242389E+03  0.25506899010E+03  0.00000000000E+00 0.  1.
<mgrwt>
<rscale>  2 0.20764125E+02</rscale>
<asrwt>0</asrwt>
<pdfrwt beam="1">  1       21 0.56263061E-01 0.20764125E+02</pdfrwt>
<pdfrwt beam="2">  1       21 0.21442700E-03 0.20764125E+02</pdfrwt>
<totfact> 0.85586775E+07</totfact>
</mgrwt>
</event>
<event>
 4    1  0.7499963E+004  0.3310705E+02  0.7546771E-02  0.1566083E+00
         21   -1    0    0  503  502  0.00000000000E+00  0.00000000000E+00  0.17626534825E+03  0.17626534825E+03  0.00000000000E+00 0. -1.
         21   -1    0    0  501  503 -0.00000000000E+00 -0.00000000000E+00 -0.64173615625E+01  0.64173615625E+01  0.00000000000E+00 0. -1.
          5    1    1    2  501    0 -0.14964580427E+02 -0.29531982779E+02  0.68838046262E+02  0.76385556799E+02  0.00000000000E+00 0. -1.
         -5    1    1    2    0  502  0.14964580427E+02  0.29531982779E+02  0.10100994043E+03  0.10629715301E+03  0.00000000000E+00 0.  1.
<mgrwt>
<rscale>  2 0.33107049E+02</rscale>
<asrwt>0</asrwt>
<pdfrwt beam="1">  1       21 0.27117742E-01 0.33107049E+02</pdfrwt>
<pdfrwt beam="2">  1       21 0.98728653E-03 0.33107049E+02</pdfrwt>
<totfact> 0.39576221E+07</totfact>
</mgrwt>
</event>
<event>
 4    1  0.7499963E+004  0.2999965E+02  0.7546771E-02  0.1598093E+00
         21   -1    0    0  501  502  0.00000000000E+00  0.00000000000E+00  0.65282461234E+01  0.65282461234E+01  0.00000000000E+00 0. -1.
         21   -1    0    0  502  503 -0.00000000000E+00 -0.00000000000E+00 -0.13790863605E+03  0.13790863605E+03  0.00000000000E+00 0. -1.
          4    1    1    2  501    0 -0.26339590467E+01 -0.29883794208E+02 -0.67057297912E+02  0.73461963626E+02  0.00000000000E+00 0.  1.
         -4    1    1    2    0  503  0.26339590467E+01  0.29883794208E+02 -0.64323092016E+02  0.70974918548E+02  0.00000000000E+00 0. -1.
<mgrwt>
<rscale>  2 0.29999648E+02</rscale>
<asrwt>0</asrwt>
<pdfrwt beam="1">  1       21 0.10043456E-02 0.29999648E+02</pdfrwt>
<pdfrwt beam="2">  1       21 0.21216712E-01 0.29999648E+02</pdfrwt>
<totfact> 0.58761801E+07</totfact>
</mgrwt>
</event>
<event>
 4    1  0.7499963E+004  0.2132877E+02  0.7546771E-02  0.1720126E+00
         21   -1    0    0  501  502  0.00000000000E+00  0.00000000000E+00  0.16206850516E+03  0.16206850516E+03  0.00000000000E+00 0. -1.
         21   -1    0    0  502  503 -0.00000000000E+00 -0.00000000000E+00 -0.34185071382E+01  0.34185071382E+01  0.00000000000E+00 0. -1.
          3    1    1    2  501    0 -0.18328039207E+02  0.10908683412E+02  0.44327409912E+02  0.49191825179E+02  0.00000000000E+00 0.  1.
         -3    1    1    2    0  503  0.18328039207E+02 -0.10908683412E+02  0.11432258811E+03  0.11629518712E+03  0.00000000000E+00 0. -1.
<mgrwt>
<rscale>  2 0.21328769E+02</rscale>
<asrwt>0</asrwt>
<pdfrwt beam="1">  1       21 0.24933610E-01 0.21328769E+02</pdfrwt>
<pdfrwt beam="2">  1       21 0.52592430E-03 0.21328769E+02</pdfrwt>
<totfact> 0.10645133E+08</totfact>
</mgrwt>
</event>
<event>
 4    1  0.7499963E+004  0.2042164E+02  0.7546771E-02  0.1737071E+00
         21   -1    0    0  503  502  0.00000000000E+00  0.00000000000E+00  0.20979489756E+01  0.20979489756E+01  0.00000000000E+00 0.  1.
         21   -1    0    0  501  503 -0.00000000000E+00 -0.00000000000E+00 -0.20166880451E+03  0.20166880451E+03  0.00000000000E+00 0.  1.
          1    1    1    2  501    0  0.20396210854E+02 -0.10188351195E+01 -0.87604747043E+02  0.89953516589E+02  0.00000000000E+00 0. -1.
         -1    1    1    2    0  502 -0.20396210854E+02  0.10188351195E+01 -0.11196610849E+03  0.11381323690E+03  0.00000000000E+00 0.  1.
<mgrwt>
<rscale>  2 0.20421642E+02</rscale>
<asrwt>0</asrwt>
<pdfrwt beam="1">  1       21 0.32276126E-03 0.20421642E+02</pdfrwt>
<pdfrwt beam="2">  1       21 0.31025982E-01 0.20421642E+02</pdfrwt>
<totfact> 0.14503539E+08</totfact>
</mgrwt>
</event>
<event>
 4    1  0.7499963E+004  0.2103686E+02  0.7546771E-02  0.1725462E+00
         21   -1    0    0  501  502  0.00000000000E+00  0.00000000000E+00  0.99453260697E+01  0.99453260697E+01  0.00000000000E+00 0.  1.
         21   -1    0    0  502  503 -0.00000000000E+00 -0.00000000000E+00 -0.45934768890E+02  0.45934768890E+02  0.00000000000E+00 0.  1.
          5    1    1    2  501    0  0.93318853043E+01 -0.18853784870E+02 -0.22935744507E+02  0.31122301704E+02  0.00000000000E+00 0.  1.
         -5    1    1    2    0  503 -0.93318853043E+01  0.18853784870E+02 -0.13053698313E+02  0.24757793256E+02  0.00000000000E+00 0. -1.
<mgrwt>
<rscale>  2 0.21036855E+02</rscale>
<asrwt>0</asrwt>
<pdfrwt beam="1">  1       21 0.15300501E-02 0.21036855E+02</pdfrwt>
<pdfrwt beam="2">  1       21 0.70668878E-02 0.21036855E+02</pdfrwt>
<totfact> 0.18018063E+08</totfact>
</mgrwt>
</event>
<event>
 4    1  0.7499963E+004  0.2778677E+02  0.7546771E-02  0.1623926E+00
         21   -1    0    0  503  502  0.00000000000E+00  0.00000000000E+00  0.15584261684E+02  0.15584261684E+02  0.00000000000E+00 0. -1.
         21   -1    0    0  501  503 -0.00000000000E+00 -0.00000000000E+00 -0.87274198680E+02  0.87274198680E+02  0.00000000000E+00 0. -1.
          2    1    1    2  501    0  0.12343554784E+02  0.24894602569E+02 -0.69660202923E+02  0.74997656317E+02  0.00000000000E+00 0.  1.
         -2    1    1    2    0  502 -0.12343554784E+02 -0.24894602569E+02 -0.20297340731E+01  0.27860804048E+02  0.00000000000E+00 0. -1.
<mgrwt>
<rscale>  2 0.27786770E+02</rscale>
<asrwt>0</asrwt>
<pdfrwt beam="1">  1       21 0.23975787E-02 0.27786770E+02</pdfrwt>
<pdfrwt beam="2">  1       21 0.13426800E-01 0.27786770E+02</pdfrwt>
<totfact> 0.33642943E+07</totfact>
</mgrwt>
</event>
<event>
 4    1  0.7499963E+004  0.2191368E+02  0.7546771E-02  0.1709749E+00
         21   -1    0    0  503  502  0.00000000000E+00  0.00000000000E+00  0.27006344027E+03  0.27006344027E+03  0.00000000000E+00 0.  1.
         21   -1    0    0  501  503 -0.00000000000E+00 -0.00000000000E+00 -0.18761155157E+01  0.18761155157E+01  0.00000000000E+00 0.  1.
          1    1    1    2  501    0 -0.93856829167E+01 -0.19801973965E+02  0.10302069150E+03  0.10532555290E+03  0.00000000000E+00 0. -1.
         -1    1    1    2    0  502  0.93856829167E+01  0.19801973965E+02  0.16516663326E+03  0.16661400289E+03  0.00000000000E+00 0.  1.
<mgrwt>
<rscale>  2 0.21913676E+02</rscale>
<asrwt>0</asrwt>
<pdfrwt beam="1">  1       21 0.41548191E-01 0.21913676E+02</pdfrwt>
<pdfrwt beam="2">  1       21 0.28863337E-03 0.21913676E+02</pdfrwt>
<totfact> 0.10132887E+08</totfact>
</mgrwt>
</event>
<event>
 4    1  0.7499963E+004  0.5183791E+02  0.7546771E-02  0.1435673E+00
         21   -1    0    0  501  502  0.00000000000E+00  0.00000000000E+00  0.30916518666E+03  0.30916518666E+03  0.00000000000E+00 0.  1.
         21   -1    0    0  502  503 -0.00000000000E+00 -0.00000000000E+00 -0.89792493030E+01  0.89792493030E+01  0.00000000000E+00 0.  1.
          5    1    1    2  501    0  0.50430070625E+02  0.11999041049E+02  0.17855956043E+03  0.18593193817E+03  0.00000000000E+00 0.  1.
         -5    1    1    2    0  503 -0.50430070625E+02 -0.11999041049E+02  0.12162637693E+03  0.13221249780E+03  0.00000000000E+00 0. -1.
<mgrwt>
<rscale>  2 0.51837911E+02</rscale>
<asrwt>0</asrwt>
<pdfrwt beam="1">  1       21 0.47563867E-01 0.51837911E+02</pdfrwt>
<pdfrwt beam="2">  1       21 0.13814232E-02 0.51837911E+02</pdfrwt>
<totfact> 0.86496133E+06</totfact>
</mgrwt>
</event>
<event>
 4    1  0.7499963E+004  0.2102603E+02  0.7546771E-02  0.1725662E+00
         21   -1    0    0  501  502  0.00000000000E+00  0.00000000000E+00  0.25524542988E+03  0.25524542988E+03  0.00000000000E+00 0.  1.
         21   -1    0    0  502  503 -0.00000000000E+00 -0.00000000000E+00 -0.17932085317E+01  0.17932085317E+01  0.00000000000E+00 0.  1.
          2    1    1    2  501    0  0.71588686917E+01 -0.19769791503E+02  0.10298865019E+03  0.10511306353E+03  0.00000000000E+00 0.  1.
         -2    1    1    2    0  503 -0.71588686917E+01  0.19769791503E+02  0.15046357116E+03  0.15192557488E+03  0.00000000000E+00 0. -1.
<mgrwt>
<rscale>  2 0.21026033E+02</rscale>
<asrwt>0</asrwt>
<pdfrwt beam="1">  1       21 0.39268499E-01 0.21026033E+02</pdfrwt>
<pdfrwt beam="2">  1       21 0.27587844E-03 0.21026033E+02</pdfrwt>
<totfact> 0.11896692E+08</totfact>
</mgrwt>
</event>
<event>
 4    1  0.7499963E+004  0.2272750E+02  0.7546771E-02  0.1695966E+00
         21   -1    0    0  503  502  0.00000000000E+00  0.00000000000E+00  0.47096287810E+02  0.47096287810E+02  0.00000000000E+00 0. -1.
         21   -1    0    0  501  503 -0.00000000000E+00 -0.00000000000E+00 -0.11074195913E+02  0.11074195913E+02  0.00000000000E+00 0. -1.
          1    1    1    2  501    0 -0.22507566978E+02  0.31541623470E+01  0.20862880670E+02  0.30851241486E+02  0.00000000000E+00 0. -1.
         -1    1    1    2    0  502  0.22507566978E+02 -0.31541623470E+01  0.15159211226E+02  0.27319242237E+02  0.00000000000E+00 0.  1.
<mgrwt>
<rscale>  2 0.22727501E+02</rscale>
<asrwt>0</asrwt>
<pdfrwt beam="1">  1       21 0.72455827E-02 0.22727501E+02</pdfrwt>
<pdfrwt beam="2">  1       21 0.17037225E-02 0.22727501E+02</pdfrwt>
<totfact> 0.15049639E+08</totfact>
</mgrwt>
</event>
<event>
 4    1  0.7499963E+004  0.2129536E+02  0.7546771E-02  0.1720731E+00
         21   -1    0    0  501  502  0.00000000000E+00  0.00000000000E+00  0.79643787407E+02  0.79643787407E+02  0.00000000000E+00 0.  1.
         21   -1    0    0  502  503 -0.00000000000E+00 -0.00000000000E+00 -0.58062650404E+01  0.58062650404E+01  0.00000000000E+00 0.  1.
          5    1    1    2  501    0  0.59407129816E+00  0.21287069366E+02  0.42859543130E+02  0.47858465084E+02  0.00000000000E+00 0.  1.
         -5    1    1    2    0  503 -0.59407129816E+00 -0.21287069366E+02  0.30977979236E+02  0.37591587363E+02  0.00000000000E+00 0. -1.
<mgrwt>
<rscale>  2 0.21295357E+02</rscale>
<asrwt>0</asrwt>
<pdfrwt beam="1">  1       21 0.12252890E-01 0.21295357E+02</pdfrwt>
<pdfrwt beam="2">  1       21 0.89327160E-03 0.21295357E+02</pdfrwt>
<totfact> 0.16466308E+08</totfact>
</mgrwt>
</event>
<event>
 4    1  0.7499963E+004  0.2448707E+02  0.7546771E-02  0.1668481E+00
         21   -1    0    0  501  502  0.00000000000E+00  0.00000000000E+00  0.16382856161E+02  0.16382856161E+02  0.00000000000E+00 0. -1.
         21   -1    0    0  502  503 -0.00000000000E+00 -0.00000000000E+00 -0.39779856324E+02  0.39779856324E+02  0.00000000000E+00 0. -1.
          4    1    1    2  501    0  0.89429531929E+01 -0.22795613177E+02 -0.37593475229E+01  0.24773959831E+02  0.00000000000E+00 0. -1.
         -4    1    1    2    0  503 -0.89429531929E+01  0.22795613177E+02 -0.19637652640E+02  0.31388752653E+02  0.00000000000E+00 0.  1.
<mgrwt>
<rscale>  2 0.24487066E+02</rscale>
<asrwt>0</asrwt>
<pdfrwt beam="1">  1       21 0.25204394E-02 0.24487066E+02</pdfrwt>
<pdfrwt beam="2">  1       21 0.61199779E-02 0.24487066E+02</pdfrwt>
<totfact> 0.11068738E+08</totfact>
</mgrwt>
</event>
<event>
 4    1  0.7499963E+004  0.3085829E+02  0.7546771E-02  0.1588791E+00
         21   -1    0    0  503  502  0.00000000000E+00  0.00000000000E+00  0.95690909018E+01  0.95690909018E+01  0.00000000000E+00 0. -1.
         21   -1    0    0  501  503 -0.00000000000E+00 -0.00000000000E+00 -0.10149243738E+03  0.10149243738E+03  0.00000000000E+00 0. -1.
          5    1    1    2  501    0  0.30464208864E+02 -0.49159138752E+01 -0.38203556915E+02  0.49109530560E+02  0.00000000000E+00 0.  1.
         -5    1    1    2    0  502 -0.30464208864E+02  0.49159138752E+01 -0.53719789560E+02  0.61951997718E+02  0.00000000000E+00 0. -1.
<mgrwt>
<rscale>  2 0.30858293E+02</rscale>
<asrwt>0</asrwt>
<pdfrwt beam="1">  1       21 0.14721680E-02 0.30858293E+02</pdfrwt>
<pdfrwt beam="2">  1       21 0.15614220E-01 0.30858293E+02</pdfrwt>
<totfact> 0.56433216E+07</totfact>
</mgrwt>
</event>
<event>
 4    1  0.7499963E+004  0.2156706E+02  0.7546771E-02  0.1715849E+00
         21   -1    0    0  503  502  0.00000000000E+00  0.00000000000E+00  0.88933229041E+02  0.88933229041E+02  0.00000000000E+00 0.  1.
         21   -1    0    0  501  503 -0.00000000000E+00 -0.00000000000E+00 -0.52350979890E+01  0.52350979890E+01  0.00000000000E+00 0.  1.
          1    1    1    2  501    0 -0.17401216480E+02  0.12741109319E+02  0.43289877002E+02  0.48364776982E+02  0.00000000000E+00 0. -1.
         -1    1    1    2    0  502  0.17401216480E+02 -0.12741109319E+02  0.40408254050E+02  0.45803550048E+02  0.00000000000E+00 0.  1.
<mgrwt>
<rscale>  2 0.21567063E+02</rscale>
<asrwt>0</asrwt>
<pdfrwt beam="1">  1       21 0.13682034E-01 0.21567063E+02</pdfrwt>
<pdfrwt beam="2">  1       21 0.80539975E-03 0.21567063E+02</pdfrwt>
<totfact> 0.16029331E+08</totfact>
</mgrwt>
</event>
<event>
 4    1  0.7499963E+004  0.6023040E+02  0.7546771E-02  0.1396867E+00
         21   -1    0    0  501  502  0.00000000000E+00  0.00000000000E+00  0.14819546189E+03  0.14819546189E+03  0.00000000000E+00 0.  1.
         21   -1    0    0  502  503 -0.00000000000E+00 -0.00000000000E+00 -0.24785774507E+02  0.24785774507E+02  0.00000000000E+00 0.  1.
          2    1    1    2  501    0  0.80270996679E+01 -0.59693109247E+02  0.52085213429E+02  0.79627702960E+02  0.00000000000E+00 0.  1.
         -2    1    1    2    0  503 -0.80270996679E+01  0.59693109247E+02  0.71324473956E+02  0.93353533440E+02  0.00000000000E+00 0. -1.
<mgrwt>
<rscale>  2 0.60230404E+02</rscale>
<asrwt>0</asrwt>
<pdfrwt beam="1">  1       21 0.22799301E-01 0.60230404E+02</pdfrwt>
<pdfrwt beam="2">  1       21 0.38131962E-02 0.60230404E+02</pdfrwt>
<totfact> 0.71015659E+06</totfact>
</mgrwt>
</event>
<event>
 4    1  0.7499963E+004  0.2037741E+02  0.7546771E-02  0.1737925E+00
         21   -1    0    0  503  502  0.00000000000E+00  0.00000000000E+00  0.49391794375E+02  0.49391794375E+02  0.00000000000E+00 0.  1.
         21   -1    0    0  501  503 -0.00000000000E+00 -0.00000000000E+00 -0.10311045208E+02  0.10311045208E+02  0.00000000000E+00 0.  1.
          1    1    1    2  501    0  0.18182070213E+01  0.20296130428E+02  0.32368042881E+02  0.38248254693E+02  0.00000000000E+00 0.  1.
         -1    1    1    2    0  502 -0.18182070213E+01 -0.20296130428E+02  0.67127062862E+01  0.21454584890E+02  0.00000000000E+00 0. -1.
<mgrwt>
<rscale>  2 0.20377409E+02</rscale>
<asrwt>0</asrwt>
<pdfrwt beam="1">  1       21 0.75987375E-02 0.20377409E+02</pdfrwt>
<pdfrwt beam="2">  1       21 0.15863147E-02 0.20377409E+02</pdfrwt>
<totfact> 0.15020016E+08</totfact>
</mgrwt>
</event>
<event>
 4    1  0.7499963E+004  0.2038722E+02  0.7546771E-02  0.1737736E+00
         21   -1    0    0  503  502  0.00000000000E+00  0.00000000000E+00  0.30822128544E+03  0.30822128544E+03  0.00000000000E+00 0.  1.
         21   -1    0    0  501  503 -0.00000000000E+00 -0.00000000000E+00 -0.13588469207E+01  0.13588469207E+01  0.00000000000E+00 0.  1.
          3    1    1    2  501    0 -0.52191408266E+01 -0.19707851243E+02  0.16693321552E+03  0.16817353322E+03  0.00000000000E+00 0. -1.
         -3    1    1    2    0  502  0.52191408266E+01  0.19707851243E+02  0.13992922300E+03  0.14140659914E+03  0.00000000000E+00 0.  1.
<mgrwt>
<rscale>  2 0.20387222E+02</rscale>
<asrwt>0</asrwt>
<pdfrwt beam="1">  1       21 0.47418604E-01 0.20387222E+02</pdfrwt>
<pdfrwt beam="2">  1       21 0.20905362E-03 0.20387222E+02</pdfrwt>
<totfact> 0.12316361E+08</totfact>
</mgrwt>
</event>
<event>
 4    1  0.7499963E+004  0.2400331E+02  0.7546771E-02  0.1675745E+00
         21   -1    0    0  501  502  0.00000000000E+00  0.00000000000E+00  0.79083623275E+01  0.79083623275E+01  0.00000000000E+00 0. -1.
         21   -1    0    0  502  503 -0.00000000000E+00 -0.00000000000E+00 -0.93006022275E+02  0.93006022275E+02  0.00000000000E+00 0. -1.
          5    1    1    2  501    0  0.17998764005E+02  0.15880911254E+02 -0.19062089499E+02  0.30651624819E+02  0.00000000000E+00 0. -1.
         -5    1    1    2    0  503 -0.17998764005E+02 -0.15880911254E+02 -0.66035570448E+02  0.70262759783E+02  0.00000000000E+00 0.  1.
<mgrwt>
<rscale>  2 0.24003309E+02</rscale>
<asrwt>0</asrwt>
<pdfrwt beam="1">  1       21 0.12166711E-02 0.24003309E+02</pdfrwt>
<pdfrwt beam="2">  1       21 0.14308619E-01 0.24003309E+02</pdfrwt>
<totfact> 0.82493349E+07</totfact>
</mgrwt>
</event>
<event>
 4    1  0.7499963E+004  0.2442749E+02  0.7546771E-02  0.1669364E+00
         21   -1    0    0  503  502  0.00000000000E+00  0.00000000000E+00  0.92836506258E+00  0.92836506258E+00  0.00000000000E+00 0.  1.
         21   -1    0    0  501  503 -0.00000000000E+00 -0.00000000000E+00 -0.65084962546E+03  0.65084962546E+03  0.00000000000E+00 0.  1.
          5    1    1    2  501    0 -0.20958604608E+02 -0.12547485790E+02 -0.36132543629E+03  0.36215020837E+03  0.00000000000E+00 0. -1.
         -5    1    1    2    0  502  0.20958604608E+02  0.12547485790E+02 -0.28859582410E+03  0.28962778215E+03  0.00000000000E+00 0.  1.
<mgrwt>
<rscale>  2 0.24427495E+02</rscale>
<asrwt>0</asrwt>
<pdfrwt beam="1">  1       21 0.14282532E-03 0.24427495E+02</pdfrwt>
<pdfrwt beam="2">  1       21 0.10013076E+00 0.24427495E+02</pdfrwt>
<totfact> 0.48252041E+07</totfact>
</mgrwt>
</event>
<event>
 4    1  0.7499963E+004  0.3684233E+02  0.7546771E-02  0.1532823E+00
         21   -1    0    0  501  502  0.00000000000E+00  0.00000000000E+00  0.52733261464E+01  0.52733261464E+01  0.00000000000E+00 0.  1.
         21   -1    0    0  502  503 -0.00000000000E+00 -0.00000000000E+00 -0.26749026464E+03  0.26749026464E+03  0.00000000000E+00 0.  1.
          1    1    1    2  501    0 -0.19300211282E+02  0.31382459632E+02 -0.15759605369E+03  0.16184521330E+03  0.00000000000E+00 0. -1.
         -1    1    1    2    0  503  0.19300211282E+02 -0.31382459632E+02 -0.10462088480E+03  0.11091837749E+03  0.00000000000E+00 0.  1.
<mgrwt>
<rscale>  2 0.36842325E+02</rscale>
<asrwt>0</asrwt>
<pdfrwt beam="1">  1       21 0.81128110E-03 0.36842325E+02</pdfrwt>
<pdfrwt beam="2">  1       21 0.41152340E-01 0.36842325E+02</pdfrwt>
<totfact> 0.24867046E+07</totfact>
</mgrwt>
</event>
<event>
 4    1  0.7499963E+004  0.3737902E+02  0.7546771E-02  0.1528435E+00
         21   -1    0    0  503  502  0.00000000000E+00  0.00000000000E+00  0.10537883923E+03  0.10537883923E+03  0.00000000000E+00 0. -1.
         21   -1    0    0  501  503 -0.00000000000E+00 -0.00000000000E+00 -0.13471939352E+02  0.13471939352E+02  0.00000000000E+00 0. -1.
          1    1    1    2  501    0  0.32883011573E+02  0.17773535868E+02  0.38477849447E+02  0.53644533043E+02  0.00000000000E+00 0.  1.
         -1    1    1    2    0  502 -0.32883011573E+02 -0.17773535868E+02  0.53429050434E+02  0.65206245542E+02  0.00000000000E+00 0. -1.
<mgrwt>
<rscale>  2 0.37379019E+02</rscale>
<asrwt>0</asrwt>
<pdfrwt beam="1">  1       21 0.16212129E-01 0.37379019E+02</pdfrwt>
<pdfrwt beam="2">  1       21 0.20726061E-02 0.37379019E+02</pdfrwt>
<totfact> 0.32338395E+07</totfact>
</mgrwt>
</event>
<event>
 4    1  0.7499963E+004  0.2775972E+02  0.7546771E-02  0.1624260E+00
         21   -1    0    0  501  502  0.00000000000E+00  0.00000000000E+00  0.29919991903E+02  0.29919991903E+02  0.00000000000E+00 0. -1.
         21   -1    0    0  502  503 -0.00000000000E+00 -0.00000000000E+00 -0.25782281252E+02  0.25782281252E+02  0.00000000000E+00 0. -1.
          5    1    1    2  501    0 -0.20330702072E+02 -0.18901447835E+02  0.11700075379E+01  0.27784367811E+02  0.00000000000E+00 0.  1.
         -5    1    1    2    0  503  0.20330702072E+02  0.18901447835E+02  0.29677031129E+01  0.27917905344E+02  0.00000000000E+00 0. -1.
<mgrwt>
<rscale>  2 0.27759722E+02</rscale>
<asrwt>0</asrwt>
<pdfrwt beam="1">  1       21 0.46030756E-02 0.27759722E+02</pdfrwt>
<pdfrwt beam="2">  1       21 0.39665048E-02 0.27759722E+02</pdfrwt>
<totfact> 0.88741228E+07</totfact>
</mgrwt>
</event>
<event>
 4    1  0.7499963E+004  0.2173970E+02  0.7546771E-02  0.1712793E+00
         21   -1    0    0  501  502  0.00000000000E+00  0.00000000000E+00  0.54068291216E+02  0.54068291216E+02  0.00000000000E+00 0. -1.
         21   -1    0    0  502  503 -0.00000000000E+00 -0.00000000000E+00 -0.88204797092E+01  0.88204797092E+01  0.00000000000E+00 0. -1.
          1    1    1    2  501    0 -0.19404240015E+02  0.98025557244E+01  0.19640321453E+02  0.29297727831E+02  0.00000000000E+00 0. -1.
         -1    1    1    2    0  503  0.19404240015E+02 -0.98025557244E+01  0.25607490054E+02  0.33591043094E+02  0.00000000000E+00 0.  1.
<mgrwt>
<rscale>  2 0.21739702E+02</rscale>
<asrwt>0</asrwt>
<pdfrwt beam="1">  1       21 0.83181984E-02 0.21739702E+02</pdfrwt>
<pdfrwt beam="2">  1       21 0.13569969E-02 0.21739702E+02</pdfrwt>
<totfact> 0.16756789E+08</totfact>
</mgrwt>
</event>
<event>
 4    1  0.7499963E+004  0.2580958E+02  0.7546771E-02  0.1649639E+00
         21   -1    0    0  503  502  0.00000000000E+00  0.00000000000E+00  0.12035280404E+04  0.12035280404E+04  0.00000000000E+00 0. -1.
         21   -1    0    0  501  503 -0.00000000000E+00 -0.00000000000E+00 -0.57420443829E+00  0.57420443829E+00  0.00000000000E+00 0. -1.
          3    1    1    2  501    0 -0.25622307039E+02  0.31035022716E+01  0.48711212833E+03  0.48779540784E+03  0.00000000000E+00 0. -1.
         -3    1    1    2    0  502  0.25622307039E+02 -0.31035022716E+01  0.71584170760E+03  0.71630683697E+03  0.00000000000E+00 0.  1.
<mgrwt>
<rscale>  2 0.25809579E+02</rscale>
<asrwt>0</asrwt>
<pdfrwt beam="1">  1       21 0.18515614E+00 0.25809579E+02</pdfrwt>
<pdfrwt beam="2">  1       21 0.88340108E-04 0.25809579E+02</pdfrwt>
<totfact> 0.22945144E+07</totfact>
</mgrwt>
</event>
<event>
 4    1  0.7499963E+004  0.2485925E+02  0.7546771E-02  0.1663032E+00
         21   -1    0    0  503  502  0.00000000000E+00  0.00000000000E+00  0.20471018024E+02  0.20471018024E+02  0.00000000000E+00 0.  1.
         21   -1    0    0  501  503 -0.00000000000E+00 -0.00000000000E+00 -0.34593024168E+02  0.34593024168E+02  0.00000000000E+00 0.  1.
          4    1    1    2  501    0  0.12956070096E+02 -0.21216088032E+02  0.27635007898E+01  0.25012378542E+02  0.00000000000E+00 0.  1.
         -4    1    1    2    0  502 -0.12956070096E+02  0.21216088032E+02 -0.16885506934E+02  0.30051663650E+02  0.00000000000E+00 0. -1.
<mgrwt>
<rscale>  2 0.24859247E+02</rscale>
<asrwt>0</asrwt>
<pdfrwt beam="1">  1       21 0.31493874E-02 0.24859247E+02</pdfrwt>
<pdfrwt beam="2">  1       21 0.53220037E-02 0.24859247E+02</pdfrwt>
<totfact> 0.98319025E+07</totfact>
</mgrwt>
</event>
<event>
 4    1  0.7499963E+004  0.2093534E+02  0.7546771E-02  0.1727343E+00
         21   -1    0    0  501  502  0.00000000000E+00  0.00000000000E+00  0.42563191711E+02  0.42563191711E+02  0.00000000000E+00 0.  1.
         21   -1    0    0  502  503 -0.00000000000E+00 -0.00000000000E+00 -0.12700206804E+02  0.12700206804E+02  0.00000000000E+00 0.  1.
          4    1    1    2  501    0 -0.11787010032E+02  0.17301880051E+02  0.26950397878E+02  0.34126420916E+02  0.00000000000E+00 0.  1.
         -4    1    1    2    0  503  0.11787010032E+02 -0.17301880051E+02  0.29125870300E+01  0.21136977599E+02  0.00000000000E+00 0. -1.
<mgrwt>
<rscale>  2 0.20935345E+02</rscale>
<asrwt>0</asrwt>
<pdfrwt beam="1">  1       21 0.65481833E-02 0.20935345E+02</pdfrwt>
<pdfrwt beam="2">  1       21 0.19538780E-02 0.20935345E+02</pdfrwt>
<totfact> 0.14021519E+08</totfact>
</mgrwt>
</event>
<event>
 4    1  0.7499963E+004  0.2571469E+02  0.7546771E-02  0.1650944E+00
         21   -1    0    0  503  502  0.00000000000E+00  0.00000000000E+00  0.13956288626E+03  0.13956288626E+03  0.00000000000E+00 0.  1.
         21   -1    0    0  501  503 -0.00000000000E+00 -0.00000000000E+00 -0.49598824553E+01  0.49598824553E+01  0.00000000000E+00 0.  1.
          1    1    1    2  501    0 -0.96253287747E+01 -0.23845301543E+02  0.52016789286E+02  0.58025785021E+02  0.00000000000E+00 0. -1.
         -1    1    1    2    0  502  0.96253287747E+01  0.23845301543E+02  0.82586214522E+02  0.86496983698E+02  0.00000000000E+00 0.  1.
<mgrwt>
<rscale>  2 0.25714692E+02</rscale>
<asrwt>0</asrwt>
<pdfrwt beam="1">  1       21 0.21471210E-01 0.25714692E+02</pdfrwt>
<pdfrwt beam="2">  1       21 0.76305894E-03 0.25714692E+02</pdfrwt>
<totfact> 0.83914628E+07</totfact>
</mgrwt>
</event>
<event>
 4    1  0.7499963E+004  0.2038023E+02  0.7546771E-02  0.1737871E+00
         21   -1    0    0  501  502  0.00000000000E+00  0.00000000000E+00  0.12171322586E+03  0.12171322586E+03  0.00000000000E+00 0.  1.
         21   -1    0    0  502  503 -0.00000000000E+00 -0.00000000000E+00 -0.35517057452E+01  0.35517057452E+01  0.00000000000E+00 0.  1.
          5    1    1    2  501    0 -0.95238277787E+01 -0.18018065138E+02  0.71477639734E+02  0.74326354335E+02  0.00000000000E+00 0. -1.
         -5    1    1    2    0  503  0.95238277787E+01  0.18018065138E+02  0.46683880381E+02  0.50938577270E+02  0.00000000000E+00 0.  1.
<mgrwt>
<rscale>  2 0.20380235E+02</rscale>
<asrwt>0</asrwt>
<pdfrwt beam="1">  1       21 0.18725108E-01 0.20380235E+02</pdfrwt>
<pdfrwt beam="2">  1       21 0.54641636E-03 0.20380235E+02</pdfrwt>
<totfact> 0.16390884E+08</totfact>
</mgrwt>
</event>
<event>
 4    1  0.7499963E+004  0.2067260E+02  0.7546771E-02  0.1732274E+00
         21   -1    0    0  501  502  0.00000000000E+00  0.00000000000E+00  0.11504479284E+02  0.11504479284E+02  0.00000000000E+00 0. -1.
         21   -1    0    0  502  503 -0.00000000000E+00 -0.00000000000E+00 -0.37817027372E+02  0.37817027372E+02  0.00000000000E+00 0. -1.
          5    1    1    2  501    0 -0.65042896258E+01 -0.19622704416E+02 -0.98736189783E+01  0.22909488512E+02  0.00000000000E+00 0. -1.
         -5    1    1    2    0  503  0.65042896258E+01  0.19622704416E+02 -0.16438929110E+02  0.26412018144E+02  0.00000000000E+00 0.  1.
<mgrwt>
<rscale>  2 0.20672598E+02</rscale>
<asrwt>0</asrwt>
<pdfrwt beam="1">  1       21 0.17699199E-02 0.20672598E+02</pdfrwt>
<pdfrwt beam="2">  1       21 0.58180042E-02 0.20672598E+02</pdfrwt>
<totfact> 0.19625281E+08</totfact>
</mgrwt>
</event>
<event>
 4    1  0.7499963E+004  0.3466335E+02  0.7546771E-02  0.1551611E+00
         21   -1    0    0  503  502  0.00000000000E+00  0.00000000000E+00  0.59949305447E+02  0.59949305447E+02  0.00000000000E+00 0. -1.
         21   -1    0    0  501  503 -0.00000000000E+00 -0.00000000000E+00 -0.20812023196E+02  0.20812023196E+02  0.00000000000E+00 0. -1.
          1    1    1    2  501    0  0.10363046084E+02 -0.33078020493E+02  0.27332189648E+02  0.44142912850E+02  0.00000000000E+00 0. -1.
         -1    1    1    2    0  502 -0.10363046084E+02  0.33078020493E+02  0.11805092603E+02  0.36618415794E+02  0.00000000000E+00 0.  1.
<mgrwt>
<rscale>  2 0.34663355E+02</rscale>
<asrwt>0</asrwt>
<pdfrwt beam="1">  1       21 0.92229700E-02 0.34663355E+02</pdfrwt>
<pdfrwt beam="2">  1       21 0.32018497E-02 0.34663355E+02</pdfrwt>
<totfact> 0.42136733E+07</totfact>
</mgrwt>
</event>
<event>
 4    1  0.7499963E+004  0.3361633E+02  0.7546771E-02  0.1561243E+00
         21   -1    0    0  501  502  0.00000000000E+00  0.00000000000E+00  0.91447388824E+03  0.91447388824E+03  0.00000000000E+00 0.  1.
         21   -1    0    0  502  503 -0.00000000000E+00 -0.00000000000E+00 -0.13756195044E+01  0.13756195044E+01  0.00000000000E+00 0.  1.
          1    1    1    2  501    0 -0.28608282960E+02  0.17652859901E+02  0.60256932525E+03  0.60350629578E+03  0.00000000000E+00 0. -1.
         -1    1    1    2    0  503  0.28608282960E+02 -0.17652859901E+02  0.31052894348E+03  0.31234321196E+03  0.00000000000E+00 0.  1.
<mgrwt>
<rscale>  2 0.33616325E+02</rscale>
<asrwt>0</asrwt>
<pdfrwt beam="1">  1       21 0.14068780E+00 0.33616325E+02</pdfrwt>
<pdfrwt beam="2">  1       21 0.21163450E-03 0.33616325E+02</pdfrwt>
<totfact> 0.13210445E+07</totfact>
</mgrwt>
</event>
<event>
 4    1  0.7499963E+004  0.2600374E+02  0.7546771E-02  0.1646990E+00
         21   -1    0    0  501  502  0.00000000000E+00  0.00000000000E+00  0.32786606620E+03  0.32786606620E+03  0.00000000000E+00 0. -1.
         21   -1    0    0  502  503 -0.00000000000E+00 -0.00000000000E+00 -0.21009018566E+01  0.21009018566E+01  0.00000000000E+00 0. -1.
          2    1    1    2  501    0  0.72762733085E+01  0.24964980150E+02  0.14055098839E+03  0.14293626105E+03  0.00000000000E+00 0. -1.
         -2    1    1    2    0  503 -0.72762733085E+01 -0.24964980150E+02  0.18521417595E+03  0.18703070700E+03  0.00000000000E+00 0.  1.
<mgrwt>
<rscale>  2 0.26003738E+02</rscale>
<asrwt>0</asrwt>
<pdfrwt beam="1">  1       21 0.50440893E-01 0.26003738E+02</pdfrwt>
<pdfrwt beam="2">  1       21 0.32321593E-03 0.26003738E+02</pdfrwt>
<totfact> 0.61715018E+07</totfact>
</mgrwt>
</event>
<event>
 4    1  0.7499963E+004  0.2123861E+02  0.7546771E-02  0.1721763E+00
         21   -1    0    0  501  502  0.00000000000E+00  0.00000000000E+00  0.47656090530E+02  0.47656090530E+02  0.00000000000E+00 0.  1.
         21   -1    0    0  502  503 -0.00000000000E+00 -0.00000000000E+00 -0.17092999953E+02  0.17092999953E+02  0.00000000000E+00 0.  1.
          4    1    1    2  501    0 -0.10557260388E+02 -0.18428853824E+02 -0.63452318810E+01  0.22166198767E+02  0.00000000000E+00 0. -1.
         -4    1    1    2    0  503  0.10557260388E+02  0.18428853824E+02  0.36908322458E+02  0.42582891715E+02  0.00000000000E+00 0.  1.
<mgrwt>
<rscale>  2 0.21238606E+02</rscale>
<asrwt>0</asrwt>
<pdfrwt beam="1">  1       21 0.73317062E-02 0.21238606E+02</pdfrwt>
<pdfrwt beam="2">  1       21 0.26296923E-02 0.21238606E+02</pdfrwt>
<totfact> 0.74353097E+07</totfact>
</mgrwt>
</event>
<event>
 4    1  0.7499963E+004  0.2621555E+02  0.7546771E-02  0.1644132E+00
         21   -1    0    0  501  502  0.00000000000E+00  0.00000000000E+00  0.51335081098E+03  0.51335081098E+03  0.00000000000E+00 0.  1.
         21   -1    0    0  502  503 -0.00000000000E+00 -0.00000000000E+00 -0.13411910251E+01  0.13411910251E+01  0.00000000000E+00 0.  1.
          1    1    1    2  501    0 -0.24827603017E+02  0.84169636734E+01  0.26695408147E+03  0.26823820899E+03  0.00000000000E+00 0. -1.
         -1    1    1    2    0  503  0.24827603017E+02 -0.84169636734E+01  0.24505553848E+03  0.24645379301E+03  0.00000000000E+00 0.  1.
<mgrwt>
<rscale>  2 0.26215552E+02</rscale>
<asrwt>0</asrwt>
<pdfrwt beam="1">  1       21 0.78976891E-01 0.26215552E+02</pdfrwt>
<pdfrwt beam="2">  1       21 0.20633749E-03 0.26215552E+02</pdfrwt>
<totfact> 0.47919685E+07</totfact>
</mgrwt>
</event>
<event>
 4    1  0.7499963E+004  0.3223992E+02  0.7546771E-02  0.1574572E+00
         21   -1    0    0  501  502  0.00000000000E+00  0.00000000000E+00  0.81178304345E+02  0.81178304345E+02  0.00000000000E+00 0. -1.
         21   -1    0    0  502  503 -0.00000000000E+00 -0.00000000000E+00 -0.13478040226E+02  0.13478040226E+02  0.00000000000E+00 0. -1.
          5    1    1    2  501    0 -0.44443536371E+01  0.31932117936E+02  0.23266670630E+02  0.39758651855E+02  0.00000000000E+00 0.  1.
         -5    1    1    2    0  503  0.44443536371E+01 -0.31932117936E+02  0.44433593489E+02  0.54897692715E+02  0.00000000000E+00 0. -1.
<mgrwt>
<rscale>  2 0.32239920E+02</rscale>
<asrwt>0</asrwt>
<pdfrwt beam="1">  1       21 0.12488970E-01 0.32239920E+02</pdfrwt>
<pdfrwt beam="2">  1       21 0.20735447E-02 0.32239920E+02</pdfrwt>
<totfact> 0.49223542E+07</totfact>
</mgrwt>
</event>
<event>
 4    1  0.7499963E+004  0.2022498E+02  0.7546771E-02  0.1740891E+00
         21   -1    0    0  503  502  0.00000000000E+00  0.00000000000E+00  0.14745856838E+03  0.14745856838E+03  0.00000000000E+00 0. -1.
         21   -1    0    0  501  503 -0.00000000000E+00 -0.00000000000E+00 -0.35558440874E+01  0.35558440874E+01  0.00000000000E+00 0. -1.
          4    1    1    2  501    0  0.39727932048E+01 -0.19830956480E+02  0.36545318267E+02  0.41768531312E+02  0.00000000000E+00 0.  1.
         -4    1    1    2    0  502 -0.39727932048E+01  0.19830956480E+02  0.10735740603E+03  0.10924588116E+03  0.00000000000E+00 0. -1.
<mgrwt>
<rscale>  2 0.20224983E+02</rscale>
<asrwt>0</asrwt>
<pdfrwt beam="1">  1       21 0.22685929E-01 0.20224983E+02</pdfrwt>
<pdfrwt beam="2">  1       21 0.54705305E-03 0.20224983E+02</pdfrwt>
<totfact> 0.11690675E+08</totfact>
</mgrwt>
</event>
<event>
 4    1  0.7499963E+004  0.2298749E+02  0.7546771E-02  0.1691713E+00
         21   -1    0    0  503  502  0.00000000000E+00  0.00000000000E+00  0.94334568917E+02  0.94334568917E+02  0.00000000000E+00 0.  1.
         21   -1    0    0  501  503 -0.00000000000E+00 -0.00000000000E+00 -0.57402965289E+01  0.57402965289E+01  0.00000000000E+00 0.  1.
          4    1    1    2  501    0  0.17760800010E+02  0.14593784287E+02  0.36519277275E+02  0.43151850128E+02  0.00000000000E+00 0.  1.
         -4    1    1    2    0  502 -0.17760800010E+02 -0.14593784287E+02  0.52074995113E+02  0.56923015318E+02  0.00000000000E+00 0. -1.
<mgrwt>
<rscale>  2 0.22987487E+02</rscale>
<asrwt>0</asrwt>
<pdfrwt beam="1">  1       21 0.14513009E-01 0.22987487E+02</pdfrwt>
<pdfrwt beam="2">  1       21 0.88312261E-03 0.22987487E+02</pdfrwt>
<totfact> 0.12884051E+08</totfact>
</mgrwt>
</event>
<event>
 4    1  0.7499963E+004  0.2588487E+02  0.7546771E-02  0.1648608E+00
         21   -1    0    0  503  502  0.00000000000E+00  0.00000000000E+00  0.28046518671E+02  0.28046518671E+02  0.00000000000E+00 0. -1.
         21   -1    0    0  501  503 -0.00000000000E+00 -0.00000000000E+00 -0.38121520414E+02  0.38121520414E+02  0.00000000000E+00 0. -1.
          5    1    1    2  501    0  0.84765527107E+01 -0.24457603503E+02 -0.25251932788E+02  0.36161947189E+02  0.00000000000E+00 0.  1.
         -5    1    1    2    0  502 -0.84765527107E+01  0.24457603503E+02  0.15176931046E+02  0.30006091897E+02  0.00000000000E+00 0. -1.
<mgrwt>
<rscale>  2 0.25884867E+02</rscale>
<asrwt>0</asrwt>
<pdfrwt beam="1">  1       21 0.43148490E-02 0.25884867E+02</pdfrwt>
<pdfrwt beam="2">  1       21 0.58648493E-02 0.25884867E+02</pdfrwt>
<totfact> 0.51730954E+07</totfact>
</mgrwt>
</event>
<event>
 4    1  0.7499963E+004  0.3675772E+02  0.7546771E-02  0.1533523E+00
         21   -1    0    0  501  502  0.00000000000E+00  0.00000000000E+00  0.10899848878E+03  0.10899848878E+03  0.00000000000E+00 0. -1.
         21   -1    0    0  502  503 -0.00000000000E+00 -0.00000000000E+00 -0.21138092896E+02  0.21138092896E+02  0.00000000000E+00 0. -1.
          1    1    1    2  501    0 -0.32718059113E+02 -0.16752866147E+02  0.85775596128E+02  0.93319787866E+02  0.00000000000E+00 0. -1.
         -1    1    1    2    0  503  0.32718059113E+02  0.16752866147E+02  0.20847997547E+01  0.36816793808E+02  0.00000000000E+00 0.  1.
<mgrwt>
<rscale>  2 0.36757719E+02</rscale>
<asrwt>0</asrwt>
<pdfrwt beam="1">  1       21 0.16768998E-01 0.36757719E+02</pdfrwt>
<pdfrwt beam="2">  1       21 0.32520144E-02 0.36757719E+02</pdfrwt>
<totfact> 0.14953131E+07</totfact>
</mgrwt>
</event>
<event>
 4    1  0.7499963E+004  0.3366167E+02  0.7546771E-02  0.1560817E+00
         21   -1    0    0  503  502  0.00000000000E+00  0.00000000000E+00  0.50997471518E+02  0.50997471518E+02  0.00000000000E+00 0. -1.
         21   -1    0    0  501  503 -0.00000000000E+00 -0.00000000000E+00 -0.22275301084E+02  0.22275301084E+02  0.00000000000E+00 0. -1.
          5    1    1    2  501    0 -0.14194032398E+02 -0.30522739936E+02  0.16204434541E+02  0.37358960206E+02  0.00000000000E+00 0. -1.
         -5    1    1    2    0  502  0.14194032398E+02  0.30522739936E+02  0.12517735893E+02  0.35913812396E+02  0.00000000000E+00 0.  1.
<mgrwt>
<rscale>  2 0.33661673E+02</rscale>
<asrwt>0</asrwt>
<pdfrwt beam="1">  1       21 0.78457648E-02 0.33661673E+02</pdfrwt>
<pdfrwt beam="2">  1       21 0.34269694E-02 0.33661673E+02</pdfrwt>
<totfact> 0.49203269E+07</totfact>
</mgrwt>
</event>
<event>
 4    1  0.7499963E+004  0.3169217E+02  0.7546771E-02  0.1580103E+00
         21   -1    0    0  503  502  0.00000000000E+00  0.00000000000E+00  0.18332596531E+02  0.18332596531E+02  0.00000000000E+00 0. -1.
         21   -1    0    0  501  503 -0.00000000000E+00 -0.00000000000E+00 -0.61913125938E+02  0.61913125938E+02  0.00000000000E+00 0. -1.
          2    1    1    2  501    0  0.24345908763E+01 -0.31598523257E+02 -0.35402122561E+02  0.47515304762E+02  0.00000000000E+00 0.  1.
         -2    1    1    2    0  502 -0.24345908763E+01  0.31598523257E+02 -0.81784068451E+01  0.32730417707E+02  0.00000000000E+00 0. -1.
<mgrwt>
<rscale>  2 0.31692174E+02</rscale>
<asrwt>0</asrwt>
<pdfrwt beam="1">  1       21 0.28203994E-02 0.31692174E+02</pdfrwt>
<pdfrwt beam="2">  1       21 0.95250965E-02 0.31692174E+02</pdfrwt>
<totfact> 0.47874203E+07</totfact>
</mgrwt>
</event>
<event>
 4    1  0.7499963E+004  0.2906907E+02  0.7546771E-02  0.1608613E+00
         21   -1    0    0  501  502  0.00000000000E+00  0.00000000000E+00  0.20584750558E+01  0.20584750558E+01  0.00000000000E+00 0. -1.
         21   -1    0    0  502  503 -0.00000000000E+00 -0.00000000000E+00 -0.51409952936E+03  0.51409952936E+03  0.00000000000E+00 0. -1.
          2    1    1    2  501    0  0.15284864888E+02  0.24726170038E+02 -0.37187192283E+03  0.37300635058E+03  0.00000000000E+00 0. -1.
         -2    1    1    2    0  503 -0.15284864888E+02 -0.24726170038E+02 -0.14016913147E+03  0.14315165384E+03  0.00000000000E+00 0.  1.
<mgrwt>
<rscale>  2 0.29069066E+02</rscale>
<asrwt>0</asrwt>
<pdfrwt beam="1">  1       21 0.31668779E-03 0.29069066E+02</pdfrwt>
<pdfrwt beam="2">  1       21 0.79092404E-01 0.29069066E+02</pdfrwt>
<totfact> 0.26065462E+07</totfact>
</mgrwt>
</event>
<event>
 4    1  0.7499963E+004  0.2052513E+02  0.7546771E-02  0.1735082E+00
         21   -1    0    0  501  502  0.00000000000E+00  0.00000000000E+00  0.74139202625E+00  0.74139202625E+00  0.00000000000E+00 0.  1.
         21   -1    0    0  502  503 -0.00000000000E+00 -0.00000000000E+00 -0.89214612181E+03  0.89214612181E+03  0.00000000000E+00 0.  1.
          3    1    1    2  501    0  0.19503809218E+02 -0.63939226150E+01 -0.17669425355E+03  0.17788237703E+03  0.00000000000E+00 0. -1.
         -3    1    1    2    0  503 -0.19503809218E+02  0.63939226150E+01 -0.71471047624E+03  0.71500513681E+03  0.00000000000E+00 0.  1.
<mgrwt>
<rscale>  2 0.20525127E+02</rscale>
<asrwt>0</asrwt>
<pdfrwt beam="1">  1       21 0.11406013E-03 0.20525127E+02</pdfrwt>
<pdfrwt beam="2">  1       21 0.13725347E+00 0.20525127E+02</pdfrwt>
<totfact> 0.31547999E+07</totfact>
</mgrwt>
</event>
<event>
 4    1  0.7499963E+004  0.2040315E+02  0.7546771E-02  0.1737428E+00
         21   -1    0    0  503  502  0.00000000000E+00  0.00000000000E+00  0.15720618157E+02  0.15720618157E+02  0.00000000000E+00 0.  1.
         21   -1    0    0  501  503 -0.00000000000E+00 -0.00000000000E+00 -0.26788201106E+02  0.26788201106E+02  0.00000000000E+00 0.  1.
          3    1    1    2  501    0 -0.12298050963E+02  0.16280254102E+02 -0.32555954819E+01  0.20661259232E+02  0.00000000000E+00 0.  1.
         -3    1    1    2    0  502  0.12298050963E+02 -0.16280254102E+02 -0.78119874666E+01  0.21847560031E+02  0.00000000000E+00 0. -1.
<mgrwt>
<rscale>  2 0.20403155E+02</rscale>
<asrwt>0</asrwt>
<pdfrwt beam="1">  1       21 0.24185567E-02 0.20403155E+02</pdfrwt>
<pdfrwt beam="2">  1       21 0.41212616E-02 0.20403155E+02</pdfrwt>
<totfact> 0.20923688E+08</totfact>
</mgrwt>
</event>
<event>
 4    1  0.7499963E+004  0.2428873E+02  0.7546771E-02  0.1671433E+00
         21   -1    0    0  503  502  0.00000000000E+00  0.00000000000E+00  0.11191154395E+03  0.11191154395E+03  0.00000000000E+00 0. -1.
         21   -1    0    0  501  503 -0.00000000000E+00 -0.00000000000E+00 -0.11095807024E+02  0.11095807024E+02  0.00000000000E+00 0. -1.
          5    1    1    2  501    0  0.21102491331E+02 -0.12026103329E+02  0.58480355392E+01  0.24982830530E+02  0.00000000000E+00 0.  1.
         -5    1    1    2    0  502 -0.21102491331E+02  0.12026103329E+02  0.94967701391E+02  0.98024520448E+02  0.00000000000E+00 0. -1.
<mgrwt>
<rscale>  2 0.24288728E+02</rscale>
<asrwt>0</asrwt>
<pdfrwt beam="1">  1       21 0.17217160E-01 0.24288728E+02</pdfrwt>
<pdfrwt beam="2">  1       21 0.17070473E-02 0.24288728E+02</pdfrwt>
<totfact> 0.36011231E+07</totfact>
</mgrwt>
</event>
<event>
 4    1  0.7499963E+004  0.2101060E+02  0.7546771E-02  0.1725947E+00
         21   -1    0    0  503  502  0.00000000000E+00  0.00000000000E+00  0.24472009501E+02  0.24472009501E+02  0.00000000000E+00 0.  1.
         21   -1    0    0  501  503 -0.00000000000E+00 -0.00000000000E+00 -0.18045011563E+02  0.18045011563E+02  0.00000000000E+00 0.  1.
          3    1    1    2  501    0  0.13753578179E+02 -0.15883456543E+02  0.36086675070E+01  0.21318245371E+02  0.00000000000E+00 0.  1.
         -3    1    1    2    0  502 -0.13753578179E+02  0.15883456543E+02  0.28183304307E+01  0.21198775694E+02  0.00000000000E+00 0. -1.
<mgrwt>
<rscale>  2 0.21010595E+02</rscale>
<asrwt>0</asrwt>
<pdfrwt beam="1">  1       21 0.37649245E-02 0.21010595E+02</pdfrwt>
<pdfrwt beam="2">  1       21 0.27761556E-02 0.21010595E+02</pdfrwt>
<totfact> 0.19677921E+08</totfact>
</mgrwt>
</event>
<event>
 4    1  0.7499963E+004  0.2625429E+02  0.7546771E-02  0.1643613E+00
         21   -1    0    0  503  502  0.00000000000E+00  0.00000000000E+00  0.31006787587E+01  0.31006787587E+01  0.00000000000E+00 0.  1.
         21   -1    0    0  501  503 -0.00000000000E+00 -0.00000000000E+00 -0.22696218751E+03  0.22696218751E+03  0.00000000000E+00 0.  1.
          1    1    1    2  501    0 -0.10265046956E+02  0.24164369214E+02 -0.95448035119E+02  0.98993006503E+02  0.00000000000E+00 0. -1.
         -1    1    1    2    0  502  0.10265046956E+02 -0.24164369214E+02 -0.12841347363E+03  0.13106985976E+03  0.00000000000E+00 0.  1.
<mgrwt>
<rscale>  2 0.26254294E+02</rscale>
<asrwt>0</asrwt>
<pdfrwt beam="1">  1       21 0.47702750E-03 0.26254294E+02</pdfrwt>
<pdfrwt beam="2">  1       21 0.34917259E-01 0.26254294E+02</pdfrwt>
<totfact> 0.70329174E+07</totfact>
</mgrwt>
</event>
<event>
 4    1  0.7499963E+004  0.2440415E+02  0.7546771E-02  0.1669711E+00
         21   -1    0    0  503  502  0.00000000000E+00  0.00000000000E+00  0.15026408089E+03  0.15026408089E+03  0.00000000000E+00 0.  1.
         21   -1    0    0  501  503 -0.00000000000E+00 -0.00000000000E+00 -0.40783865111E+01  0.40783865111E+01  0.00000000000E+00 0.  1.
          2    1    1    2  501    0 -0.24199194870E+02 -0.31562112929E+01  0.86048482973E+02  0.89442183135E+02  0.00000000000E+00 0. -1.
         -2    1    1    2    0  502  0.24199194870E+02  0.31562112929E+01  0.60137211405E+02  0.64900284264E+02  0.00000000000E+00 0.  1.
<mgrwt>
<rscale>  2 0.24404153E+02</rscale>
<asrwt>0</asrwt>
<pdfrwt beam="1">  1       21 0.23117547E-01 0.24404153E+02</pdfrwt>
<pdfrwt beam="2">  1       21 0.62744419E-03 0.24404153E+02</pdfrwt>
<totfact> 0.97298061E+07</totfact>
</mgrwt>
</event>
<event>
 4    1  0.7499963E+004  0.3424789E+02  0.7546771E-02  0.1555383E+00
         21   -1    0    0  503  502  0.00000000000E+00  0.00000000000E+00  0.14100124569E+04  0.14100124569E+04  0.00000000000E+00 0. -1.
         21   -1    0    0  501  503 -0.00000000000E+00 -0.00000000000E+00 -0.83960232272E+00  0.83960232272E+00  0.00000000000E+00 0. -1.
          3    1    1    2  501    0  0.11371168043E+02  0.32305020175E+02  0.77237427787E+03  0.77313319868E+03  0.00000000000E+00 0. -1.
         -3    1    1    2    0  502 -0.11371168043E+02 -0.32305020175E+02  0.63679857668E+03  0.63771886051E+03  0.00000000000E+00 0.  1.
<mgrwt>
<rscale>  2 0.34247887E+02</rscale>
<asrwt>0</asrwt>
<pdfrwt beam="1">  1       21 0.21692310E+00 0.34247887E+02</pdfrwt>
<pdfrwt beam="2">  1       21 0.12917072E-03 0.34247887E+02</pdfrwt>
<totfact> 0.90160564E+06</totfact>
</mgrwt>
</event>
<event>
 4    1  0.7499963E+004  0.2057104E+02  0.7546771E-02  0.1734205E+00
         21   -1    0    0  501  502  0.00000000000E+00  0.00000000000E+00  0.52718755176E+03  0.52718755176E+03  0.00000000000E+00 0. -1.
         21   -1    0    0  502  503 -0.00000000000E+00 -0.00000000000E+00 -0.80268921621E+00  0.80268921621E+00  0.00000000000E+00 0. -1.
          3    1    1    2  501    0  0.26054839455E+01  0.20405370245E+02  0.26307672844E+03  0.26387976946E+03  0.00000000000E+00 0. -1.
         -3    1    1    2    0  503 -0.26054839455E+01 -0.20405370245E+02  0.26330813410E+03  0.26411047152E+03  0.00000000000E+00 0.  1.
<mgrwt>
<rscale>  2 0.20571040E+02</rscale>
<asrwt>0</asrwt>
<pdfrwt beam="1">  1       21 0.81105500E-01 0.20571040E+02</pdfrwt>
<pdfrwt beam="2">  1       21 0.12349107E-03 0.20571040E+02</pdfrwt>
<totfact> 0.89599031E+07</totfact>
</mgrwt>
</event>
<event>
 4    1  0.7499963E+004  0.2295139E+02  0.7546771E-02  0.1692299E+00
         21   -1    0    0  501  502  0.00000000000E+00  0.00000000000E+00  0.84210009166E+02  0.84210009166E+02  0.00000000000E+00 0.  1.
         21   -1    0    0  502  503 -0.00000000000E+00 -0.00000000000E+00 -0.66688045451E+01  0.66688045451E+01  0.00000000000E+00 0.  1.
          1    1    1    2  501    0 -0.22904652327E+02 -0.14640313260E+01  0.27456989641E+02  0.35786209161E+02  0.00000000000E+00 0. -1.
         -1    1    1    2    0  503  0.22904652327E+02  0.14640313260E+01  0.50084214980E+02  0.55092604550E+02  0.00000000000E+00 0.  1.
<mgrwt>
<rscale>  2 0.22951394E+02</rscale>
<asrwt>0</asrwt>
<pdfrwt beam="1">  1       21 0.12955385E-01 0.22951394E+02</pdfrwt>
<pdfrwt beam="2">  1       21 0.10259700E-02 0.22951394E+02</pdfrwt>
<totfact> 0.12461591E+08</totfact>
</mgrwt>
</event>
<event>
 4    1  0.7499963E+004  0.2137634E+02  0.7546771E-02  0.1719266E+00
         21   -1    0    0  501  502  0.00000000000E+00  0.00000000000E+00  0.23956149494E+01  0.23956149494E+01  0.00000000000E+00 0.  1.
         21   -1    0    0  502  503 -0.00000000000E+00 -0.00000000000E+00 -0.28763953409E+03  0.28763953409E+03  0.00000000000E+00 0.  1.
          3    1    1    2  501    0 -0.10871939047E+01  0.21348675579E+02 -0.58453498299E+02  0.62239532477E+02  0.00000000000E+00 0.  1.
         -3    1    1    2    0  503  0.10871939047E+01 -0.21348675579E+02 -0.22679042084E+03  0.22779561656E+03  0.00000000000E+00 0. -1.
<mgrwt>
<rscale>  2 0.21376341E+02</rscale>
<asrwt>0</asrwt>
<pdfrwt beam="1">  1       21 0.36855612E-03 0.21376341E+02</pdfrwt>
<pdfrwt beam="2">  1       21 0.44252239E-01 0.21376341E+02</pdfrwt>
<totfact> 0.62562876E+07</totfact>
</mgrwt>
</event>
<event>
 4    1  0.7499963E+004  0.2123051E+02  0.7546771E-02  0.1721910E+00
         21   -1    0    0  501  502  0.00000000000E+00  0.00000000000E+00  0.12836160011E+01  0.12836160011E+01  0.00000000000E+00 0.  1.
         21   -1    0    0  502  503 -0.00000000000E+00 -0.00000000000E+00 -0.37660041599E+03  0.37660041599E+03  0.00000000000E+00 0.  1.
          1    1    1    2  501    0  0.69159259821E+01 -0.20072481869E+02 -0.13853556409E+03  0.14015290607E+03  0.00000000000E+00 0.  1.
         -1    1    1    2    0  503 -0.69159259821E+01  0.20072481869E+02 -0.23678123590E+03  0.23773112593E+03  0.00000000000E+00 0. -1.
<mgrwt>
<rscale>  2 0.21230510E+02</rscale>
<asrwt>0</asrwt>
<pdfrwt beam="1">  1       21 0.19747951E-03 0.21230510E+02</pdfrwt>
<pdfrwt beam="2">  1       21 0.57938487E-01 0.21230510E+02</pdfrwt>
<totfact> 0.91465777E+07</totfact>
</mgrwt>
</event>
<event>
 4    1  0.7499963E+004  0.2149404E+02  0.7546771E-02  0.1717152E+00
         21   -1    0    0  503  502  0.00000000000E+00  0.00000000000E+00  0.73494005162E+02  0.73494005162E+02  0.00000000000E+00 0. -1.
         21   -1    0    0  501  503 -0.00000000000E+00 -0.00000000000E+00 -0.78225599778E+01  0.78225599778E+01  0.00000000000E+00 0. -1.
          1    1    1    2  501    0 -0.46546285701E+01  0.20983993507E+02  0.14816765233E+02  0.26106131130E+02  0.00000000000E+00 0. -1.
         -1    1    1    2    0  502  0.46546285701E+01 -0.20983993507E+02  0.50854679951E+02  0.55210434009E+02  0.00000000000E+00 0.  1.
<mgrwt>
<rscale>  2 0.21494035E+02</rscale>
<asrwt>0</asrwt>
<pdfrwt beam="1">  1       21 0.11306770E-01 0.21494035E+02</pdfrwt>
<pdfrwt beam="2">  1       21 0.12034708E-02 0.21494035E+02</pdfrwt>
<totfact> 0.12074219E+08</totfact>
</mgrwt>
</event>
<event>
 4    1  0.7499963E+004  0.2090380E+02  0.7546771E-02  0.1727930E+00
         21   -1    0    0  503  502  0.00000000000E+00  0.00000000000E+00  0.20905360010E+02  0.20905360010E+02  0.00000000000E+00 0. -1.
         21   -1    0    0  501  503 -0.00000000000E+00 -0.00000000000E+00 -0.29048263572E+02  0.29048263572E+02  0.00000000000E+00 0. -1.
          2    1    1    2  501    0  0.34487219597E+01 -0.20617354336E+02  0.91551895698E+01  0.22820746680E+02  0.00000000000E+00 0. -1.
         -2    1    1    2    0  502 -0.34487219597E+01  0.20617354336E+02 -0.17298093132E+02  0.27132876902E+02  0.00000000000E+00 0.  1.
<mgrwt>
<rscale>  2 0.20903803E+02</rscale>
<asrwt>0</asrwt>
<pdfrwt beam="1">  1       21 0.32162092E-02 0.20903803E+02</pdfrwt>
<pdfrwt beam="2">  1       21 0.44689637E-02 0.20903803E+02</pdfrwt>
<totfact> 0.11943750E+08</totfact>
</mgrwt>
</event>
<event>
 4    1  0.7499963E+004  0.2490113E+02  0.7546771E-02  0.1662426E+00
         21   -1    0    0  501  502  0.00000000000E+00  0.00000000000E+00  0.58262743166E+02  0.58262743166E+02  0.00000000000E+00 0. -1.
         21   -1    0    0  502  503 -0.00000000000E+00 -0.00000000000E+00 -0.10767135406E+02  0.10767135406E+02  0.00000000000E+00 0. -1.
          2    1    1    2  501    0 -0.21997335188E+02 -0.11669759615E+02  0.27460027566E+02  0.37069113272E+02  0.00000000000E+00 0. -1.
         -2    1    1    2    0  503  0.21997335188E+02  0.11669759615E+02  0.20035580194E+02  0.31960765300E+02  0.00000000000E+00 0.  1.
<mgrwt>
<rscale>  2 0.24901125E+02</rscale>
<asrwt>0</asrwt>
<pdfrwt beam="1">  1       21 0.89634987E-02 0.24901125E+02</pdfrwt>
<pdfrwt beam="2">  1       21 0.16564824E-02 0.24901125E+02</pdfrwt>
<totfact> 0.11393755E+08</totfact>
</mgrwt>
</event>
<event>
 4    1  0.7499963E+004  0.2417148E+02  0.7546771E-02  0.1673196E+00
         21   -1    0    0  501  502  0.00000000000E+00  0.00000000000E+00  0.10092997116E+02  0.10092997116E+02  0.00000000000E+00 0.  1.
         21   -1    0    0  502  503 -0.00000000000E+00 -0.00000000000E+00 -0.68073481195E+02  0.68073481195E+02  0.00000000000E+00 0.  1.
          3    1    1    2  501    0  0.31246364529E+01  0.23968667785E+02 -0.44108395277E+02  0.50297225791E+02  0.00000000000E+00 0. -1.
         -3    1    1    2    0  503 -0.31246364529E+01 -0.23968667785E+02 -0.13872088801E+02  0.27869252520E+02  0.00000000000E+00 0.  1.
<mgrwt>
<rscale>  2 0.24171479E+02</rscale>
<asrwt>0</asrwt>
<pdfrwt beam="1">  1       21 0.15527688E-02 0.24171479E+02</pdfrwt>
<pdfrwt beam="2">  1       21 0.10472843E-01 0.24171479E+02</pdfrwt>
<totfact> 0.96415647E+07</totfact>
</mgrwt>
</event>
<event>
 4    1  0.7499963E+004  0.2452684E+02  0.7546771E-02  0.1667892E+00
         21   -1    0    0  503  502  0.00000000000E+00  0.00000000000E+00  0.40530033789E+01  0.40530033789E+01  0.00000000000E+00 0.  1.
         21   -1    0    0  501  503 -0.00000000000E+00 -0.00000000000E+00 -0.16537612726E+03  0.16537612726E+03  0.00000000000E+00 0.  1.
          1    1    1    2  501    0  0.23493209980E+02 -0.70452243356E+01 -0.10778369830E+03  0.11053909589E+03  0.00000000000E+00 0. -1.
         -1    1    1    2    0  502 -0.23493209980E+02  0.70452243356E+01 -0.53539425584E+02  0.58890034751E+02  0.00000000000E+00 0.  1.
<mgrwt>
<rscale>  2 0.24526844E+02</rscale>
<asrwt>0</asrwt>
<pdfrwt beam="1">  1       21 0.62353909E-03 0.24526844E+02</pdfrwt>
<pdfrwt beam="2">  1       21 0.25442477E-01 0.24526844E+02</pdfrwt>
<totfact> 0.82892498E+07</totfact>
</mgrwt>
</event>
<event>
 4    1  0.7499963E+004  0.2036542E+02  0.7546771E-02  0.1738157E+00
         21   -1    0    0  501  502  0.00000000000E+00  0.00000000000E+00  0.36753032367E+02  0.36753032367E+02  0.00000000000E+00 0.  1.
         21   -1    0    0  502  503 -0.00000000000E+00 -0.00000000000E+00 -0.12396523933E+02  0.12396523933E+02  0.00000000000E+00 0.  1.
          5    1    1    2  501    0  0.19679235095E+02 -0.52419536901E+01  0.48189045903E+01  0.20927785690E+02  0.00000000000E+00 0.  1.
         -5    1    1    2    0  503 -0.19679235095E+02  0.52419536901E+01  0.19537603844E+02  0.28221770610E+02  0.00000000000E+00 0. -1.
<mgrwt>
<rscale>  2 0.20365421E+02</rscale>
<asrwt>0</asrwt>
<pdfrwt beam="1">  1       21 0.56543126E-02 0.20365421E+02</pdfrwt>
<pdfrwt beam="2">  1       21 0.19071575E-02 0.20365421E+02</pdfrwt>
<totfact> 0.18243168E+08</totfact>
</mgrwt>
</event>
<event>
 4    1  0.7499963E+004  0.2062394E+02  0.7546771E-02  0.1733198E+00
         21   -1    0    0  503  502  0.00000000000E+00  0.00000000000E+00  0.22838623349E+01  0.22838623349E+01  0.00000000000E+00 0.  1.
         21   -1    0    0  501  503 -0.00000000000E+00 -0.00000000000E+00 -0.19728714894E+03  0.19728714894E+03  0.00000000000E+00 0.  1.
          1    1    1    2  501    0  0.94488010416E+01  0.18332127710E+02 -0.12111410255E+03  0.12285752962E+03  0.00000000000E+00 0.  1.
         -1    1    1    2    0  502 -0.94488010416E+01 -0.18332127710E+02 -0.73889184057E+02  0.76713481658E+02  0.00000000000E+00 0. -1.
<mgrwt>
<rscale>  2 0.20623936E+02</rscale>
<asrwt>0</asrwt>
<pdfrwt beam="1">  1       21 0.35136338E-03 0.20623936E+02</pdfrwt>
<pdfrwt beam="2">  1       21 0.30351874E-01 0.20623936E+02</pdfrwt>
<totfact> 0.13377125E+08</totfact>
</mgrwt>
</event>
<event>
 4    1  0.7499963E+004  0.2621594E+02  0.7546771E-02  0.1644127E+00
         21   -1    0    0  503  502  0.00000000000E+00  0.00000000000E+00  0.58763604934E+01  0.58763604934E+01  0.00000000000E+00 0. -1.
         21   -1    0    0  501  503 -0.00000000000E+00 -0.00000000000E+00 -0.15974254691E+03  0.15974254691E+03  0.00000000000E+00 0. -1.
          1    1    1    2  501    0  0.15906095537E+02  0.20839180644E+02 -0.11979026316E+03  0.12262537450E+03  0.00000000000E+00 0. -1.
         -1    1    1    2    0  502 -0.15906095537E+02 -0.20839180644E+02 -0.34075923260E+02  0.42993532899E+02  0.00000000000E+00 0.  1.
<mgrwt>
<rscale>  2 0.26215936E+02</rscale>
<asrwt>0</asrwt>
<pdfrwt beam="1">  1       21 0.90405565E-03 0.26215936E+02</pdfrwt>
<pdfrwt beam="2">  1       21 0.24575771E-01 0.26215936E+02</pdfrwt>
<totfact> 0.51418290E+07</totfact>
</mgrwt>
</event>
<event>
 4    1  0.7499963E+004  0.2907520E+02  0.7546771E-02  0.1608542E+00
         21   -1    0    0  501  502  0.00000000000E+00  0.00000000000E+00  0.21021131452E+02  0.21021131452E+02  0.00000000000E+00 0. -1.
         21   -1    0    0  502  503 -0.00000000000E+00 -0.00000000000E+00 -0.64567922558E+02  0.64567922558E+02  0.00000000000E+00 0. -1.
          4    1    1    2  501    0 -0.11845510222E+02 -0.26552796993E+02  0.45083602374E+01  0.29422652032E+02  0.00000000000E+00 0. -1.
         -4    1    1    2    0  503  0.11845510222E+02  0.26552796993E+02 -0.48055151343E+02  0.56166401978E+02  0.00000000000E+00 0.  1.
<mgrwt>
<rscale>  2 0.29075198E+02</rscale>
<asrwt>0</asrwt>
<pdfrwt beam="1">  1       21 0.32340203E-02 0.29075198E+02</pdfrwt>
<pdfrwt beam="2">  1       21 0.99335264E-02 0.29075198E+02</pdfrwt>
<totfact> 0.35339562E+07</totfact>
</mgrwt>
</event>
<event>
 4    1  0.7499963E+004  0.3204482E+02  0.7546771E-02  0.1576527E+00
         21   -1    0    0  501  502  0.00000000000E+00  0.00000000000E+00  0.66938819021E+02  0.66938819021E+02  0.00000000000E+00 0. -1.
         21   -1    0    0  502  503 -0.00000000000E+00 -0.00000000000E+00 -0.15509858757E+02  0.15509858757E+02  0.00000000000E+00 0. -1.
          5    1    1    2  501    0  0.64258939431E+01 -0.31393924581E+02  0.21405874806E+02  0.38536762835E+02  0.00000000000E+00 0. -1.
         -5    1    1    2    0  503 -0.64258939431E+01  0.31393924581E+02  0.30023085458E+02  0.43911914944E+02  0.00000000000E+00 0.  1.
<mgrwt>
<rscale>  2 0.32044822E+02</rscale>
<asrwt>0</asrwt>
<pdfrwt beam="1">  1       21 0.10298280E-01 0.32044822E+02</pdfrwt>
<pdfrwt beam="2">  1       21 0.23861322E-02 0.32044822E+02</pdfrwt>
<totfact> 0.54720352E+07</totfact>
</mgrwt>
</event>
<event>
 4    1  0.7499963E+004  0.5959881E+02  0.7546771E-02  0.1399523E+00
         21   -1    0    0  501  502  0.00000000000E+00  0.00000000000E+00  0.10568014912E+03  0.10568014912E+03  0.00000000000E+00 0. -1.
         21   -1    0    0  502  503 -0.00000000000E+00 -0.00000000000E+00 -0.34686763470E+02  0.34686763470E+02  0.00000000000E+00 0. -1.
          1    1    1    2  501    0  0.59476932480E+02  0.38094723012E+01  0.23137011378E+02  0.63932299129E+02  0.00000000000E+00 0.  1.
         -1    1    1    2    0  503 -0.59476932480E+02 -0.38094723012E+01  0.47856374271E+02  0.76434613460E+02  0.00000000000E+00 0. -1.
<mgrwt>
<rscale>  2 0.59598805E+02</rscale>
<asrwt>0</asrwt>
<pdfrwt beam="1">  1       21 0.16258484E-01 0.59598805E+02</pdfrwt>
<pdfrwt beam="2">  1       21 0.53364252E-02 0.59598805E+02</pdfrwt>
<totfact> 0.75258630E+06</totfact>
</mgrwt>
</event>
<event>
 4    1  0.7499963E+004  0.2561477E+02  0.7546771E-02  0.1652326E+00
         21   -1    0    0  501  502  0.00000000000E+00  0.00000000000E+00  0.86552555470E+01  0.86552555470E+01  0.00000000000E+00 0. -1.
         21   -1    0    0  502  503 -0.00000000000E+00 -0.00000000000E+00 -0.76099484501E+02  0.76099484501E+02  0.00000000000E+00 0. -1.
          5    1    1    2  501    0  0.25504365070E+02 -0.23756336753E+01 -0.36355896772E+02  0.44473222315E+02  0.00000000000E+00 0.  1.
         -5    1    1    2    0  503 -0.25504365070E+02  0.23756336753E+01 -0.31088332181E+02  0.40281517732E+02  0.00000000000E+00 0. -1.
<mgrwt>
<rscale>  2 0.25614767E+02</rscale>
<asrwt>0</asrwt>
<pdfrwt beam="1">  1       21 0.13315778E-02 0.25614767E+02</pdfrwt>
<pdfrwt beam="2">  1       21 0.11707613E-01 0.25614767E+02</pdfrwt>
<totfact> 0.10269934E+08</totfact>
</mgrwt>
</event>
<event>
 4    1  0.7499963E+004  0.3682681E+02  0.7546771E-02  0.1532952E+00
         21   -1    0    0  501  502  0.00000000000E+00  0.00000000000E+00  0.13138777925E+02  0.13138777925E+02  0.00000000000E+00 0.  1.
         21   -1    0    0  502  503 -0.00000000000E+00 -0.00000000000E+00 -0.16272846518E+03  0.16272846518E+03  0.00000000000E+00 0.  1.
          2    1    1    2  501    0 -0.11478686349E+02 -0.34992198765E+02 -0.21620227742E+02  0.42704197244E+02  0.00000000000E+00 0.  1.
         -2    1    1    2    0  503  0.11478686349E+02  0.34992198765E+02 -0.12796945951E+03  0.13316304586E+03  0.00000000000E+00 0. -1.
<mgrwt>
<rscale>  2 0.36826814E+02</rscale>
<asrwt>0</asrwt>
<pdfrwt beam="1">  1       21 0.20213505E-02 0.36826814E+02</pdfrwt>
<pdfrwt beam="2">  1       21 0.25035148E-01 0.36826814E+02</pdfrwt>
<totfact> 0.15477077E+07</totfact>
</mgrwt>
</event>
<event>
 4    1  0.7499963E+004  0.2934818E+02  0.7546771E-02  0.1605407E+00
         21   -1    0    0  503  502  0.00000000000E+00  0.00000000000E+00  0.39251675448E+03  0.39251675448E+03  0.00000000000E+00 0. -1.
         21   -1    0    0  501  503 -0.00000000000E+00 -0.00000000000E+00 -0.26290606814E+01  0.26290606814E+01  0.00000000000E+00 0. -1.
          5    1    1    2  501    0 -0.28697242771E+02 -0.61468575773E+01  0.27528383187E+03  0.27684382545E+03  0.00000000000E+00 0.  1.
         -5    1    1    2    0  502  0.28697242771E+02  0.61468575773E+01  0.11460386193E+03  0.11830198971E+03  0.00000000000E+00 0. -1.
<mgrwt>
<rscale>  2 0.29348179E+02</rscale>
<asrwt>0</asrwt>
<pdfrwt beam="1">  1       21 0.60387146E-01 0.29348179E+02</pdfrwt>
<pdfrwt beam="2">  1       21 0.40447119E-03 0.29348179E+02</pdfrwt>
<totfact> 0.31801848E+07</totfact>
</mgrwt>
</event>
<event>
 4    1  0.7499963E+004  0.2361006E+02  0.7546771E-02  0.1681808E+00
         21   -1    0    0  503  502  0.00000000000E+00  0.00000000000E+00  0.51265109056E+02  0.51265109056E+02  0.00000000000E+00 0.  1.
         21   -1    0    0  501  503 -0.00000000000E+00 -0.00000000000E+00 -0.14839464213E+02  0.14839464213E+02  0.00000000000E+00 0.  1.
          2    1    1    2  501    0  0.16201863622E+02 -0.17173651907E+02  0.35299712013E+02  0.42467686220E+02  0.00000000000E+00 0. -1.
         -2    1    1    2    0  502 -0.16201863622E+02  0.17173651907E+02  0.11259328297E+01  0.23636887049E+02  0.00000000000E+00 0.  1.
<mgrwt>
<rscale>  2 0.23610055E+02</rscale>
<asrwt>0</asrwt>
<pdfrwt beam="1">  1       21 0.78869398E-02 0.23610055E+02</pdfrwt>
<pdfrwt beam="2">  1       21 0.22829945E-02 0.23610055E+02</pdfrwt>
<totfact> 0.84610142E+07</totfact>
</mgrwt>
</event>
<event>
 4    1  0.7499963E+004  0.2938521E+02  0.7546771E-02  0.1604985E+00
         21   -1    0    0  501  502  0.00000000000E+00  0.00000000000E+00  0.54371305880E+02  0.54371305880E+02  0.00000000000E+00 0.  1.
         21   -1    0    0  502  503 -0.00000000000E+00 -0.00000000000E+00 -0.19256862582E+02  0.19256862582E+02  0.00000000000E+00 0.  1.
          4    1    1    2  501    0  0.40215240329E+00  0.29382456681E+02  0.21441138481E+01  0.29463328247E+02  0.00000000000E+00 0.  1.
         -4    1    1    2    0  503 -0.40215240329E+00 -0.29382456681E+02  0.32970329450E+02  0.44164840215E+02  0.00000000000E+00 0. -1.
<mgrwt>
<rscale>  2 0.29385209E+02</rscale>
<asrwt>0</asrwt>
<pdfrwt beam="1">  1       21 0.83648162E-02 0.29385209E+02</pdfrwt>
<pdfrwt beam="2">  1       21 0.29625943E-02 0.29385209E+02</pdfrwt>
<totfact> 0.54093267E+07</totfact>
</mgrwt>
</event>
<event>
 4    1  0.7499963E+004  0.2309399E+02  0.7546771E-02  0.1689991E+00
         21   -1    0    0  503  502  0.00000000000E+00  0.00000000000E+00  0.36529539452E+01  0.36529539452E+01  0.00000000000E+00 0. -1.
         21   -1    0    0  501  503 -0.00000000000E+00 -0.00000000000E+00 -0.18941854538E+03  0.18941854538E+03  0.00000000000E+00 0. -1.
          3    1    1    2  501    0 -0.94756891535E+01 -0.21060475439E+02 -0.13910100802E+03  0.14100504510E+03  0.00000000000E+00 0.  1.
         -3    1    1    2    0  502  0.94756891535E+01  0.21060475439E+02 -0.46664583418E+02  0.52066454231E+02  0.00000000000E+00 0. -1.
<mgrwt>
<rscale>  2 0.23093989E+02</rscale>
<asrwt>0</asrwt>
<pdfrwt beam="1">  1       21 0.56199283E-03 0.23093989E+02</pdfrwt>
<pdfrwt beam="2">  1       21 0.29141319E-01 0.23093989E+02</pdfrwt>
<totfact> 0.74545195E+07</totfact>
</mgrwt>
</event>
<event>
 4    1  0.7499963E+004  0.3993882E+02  0.7546771E-02  0.1508662E+00
         21   -1    0    0  503  502  0.00000000000E+00  0.00000000000E+00  0.13777076506E+02  0.13777076506E+02  0.00000000000E+00 0. -1.
         21   -1    0    0  501  503 -0.00000000000E+00 -0.00000000000E+00 -0.18804978694E+03  0.18804978694E+03  0.00000000000E+00 0. -1.
          2    1    1    2  501    0 -0.17357082372E+02 -0.35970001498E+02 -0.14969553857E+03  0.15493180301E+03  0.00000000000E+00 0.  1.
         -2    1    1    2    0  502  0.17357082372E+02  0.35970001498E+02 -0.24577171857E+02  0.46895060430E+02  0.00000000000E+00 0. -1.
<mgrwt>
<rscale>  2 0.39938820E+02</rscale>
<asrwt>0</asrwt>
<pdfrwt beam="1">  1       21 0.21195504E-02 0.39938820E+02</pdfrwt>
<pdfrwt beam="2">  1       21 0.28930734E-01 0.39938820E+02</pdfrwt>
<totfact> 0.11151145E+07</totfact>
</mgrwt>
</event>
<event>
 4    1  0.7499963E+004  0.2253962E+02  0.7546771E-02  0.1699083E+00
         21   -1    0    0  501  502  0.00000000000E+00  0.00000000000E+00  0.87335796646E+00  0.87335796646E+00  0.00000000000E+00 0. -1.
         21   -1    0    0  502  503 -0.00000000000E+00 -0.00000000000E+00 -0.58843082101E+03  0.58843082101E+03  0.00000000000E+00 0. -1.
          4    1    1    2  501    0 -0.18825998852E+02  0.12394207507E+02 -0.32528605233E+03  0.32606602161E+03  0.00000000000E+00 0.  1.
         -4    1    1    2    0  503  0.18825998852E+02 -0.12394207507E+02 -0.26227141072E+03  0.26323815736E+03  0.00000000000E+00 0. -1.
<mgrwt>
<rscale>  2 0.22539623E+02</rscale>
<asrwt>0</asrwt>
<pdfrwt beam="1">  1       21 0.13436275E-03 0.22539623E+02</pdfrwt>
<pdfrwt beam="2">  1       21 0.90527830E-01 0.22539623E+02</pdfrwt>
<totfact> 0.64371399E+07</totfact>
</mgrwt>
</event>
<event>
 4    1  0.7499963E+004  0.2468733E+02  0.7546771E-02  0.1665534E+00
         21   -1    0    0  503  502  0.00000000000E+00  0.00000000000E+00  0.23221918845E+01  0.23221918845E+01  0.00000000000E+00 0.  1.
         21   -1    0    0  501  503 -0.00000000000E+00 -0.00000000000E+00 -0.26695393363E+03  0.26695393363E+03  0.00000000000E+00 0.  1.
          3    1    1    2  501    0  0.19805933800E+02  0.14737341517E+02 -0.14979992273E+03  0.15182055559E+03  0.00000000000E+00 0. -1.
         -3    1    1    2    0  502 -0.19805933800E+02 -0.14737341517E+02 -0.11483181901E+03  0.11745556992E+03  0.00000000000E+00 0.  1.
<mgrwt>
<rscale>  2 0.24687330E+02</rscale>
<asrwt>0</asrwt>
<pdfrwt beam="1">  1       21 0.35726039E-03 0.24687330E+02</pdfrwt>
<pdfrwt beam="2">  1       21 0.41069825E-01 0.24687330E+02</pdfrwt>
<totfact> 0.78222972E+07</totfact>
</mgrwt>
</event>
<event>
 4    1  0.7499963E+004  0.2055927E+02  0.7546771E-02  0.1734430E+00
         21   -1    0    0  501  502  0.00000000000E+00  0.00000000000E+00  0.11672222957E+03  0.11672222957E+03  0.00000000000E+00 0. -1.
         21   -1    0    0  502  503 -0.00000000000E+00 -0.00000000000E+00 -0.36305387123E+01  0.36305387123E+01  0.00000000000E+00 0. -1.
          2    1    1    2  501    0 -0.19019655818E+02  0.78061689786E+01  0.59585154768E+02  0.63032327026E+02  0.00000000000E+00 0.  1.
         -2    1    1    2    0  503  0.19019655818E+02 -0.78061689786E+01  0.53506536090E+02  0.57320441257E+02  0.00000000000E+00 0. -1.
<mgrwt>
<rscale>  2 0.20559270E+02</rscale>
<asrwt>0</asrwt>
<pdfrwt beam="1">  1       21 0.17957263E-01 0.20559270E+02</pdfrwt>
<pdfrwt beam="2">  1       21 0.55854451E-03 0.20559270E+02</pdfrwt>
<totfact> 0.17101587E+08</totfact>
</mgrwt>
</event>
<event>
 4    1  0.7499963E+004  0.5830674E+02  0.7546771E-02  0.1405078E+00
         21   -1    0    0  501  502  0.00000000000E+00  0.00000000000E+00  0.87635282600E+02  0.87635282600E+02  0.00000000000E+00 0.  1.
         21   -1    0    0  502  503 -0.00000000000E+00 -0.00000000000E+00 -0.67555762523E+02  0.67555762523E+02  0.00000000000E+00 0.  1.
          2    1    1    2  501    0  0.48350764232E+02 -0.32586490575E+02 -0.40591331717E+02  0.71044577418E+02  0.00000000000E+00 0. -1.
         -2    1    1    2    0  503 -0.48350764232E+02  0.32586490575E+02  0.60670851794E+02  0.84146467706E+02  0.00000000000E+00 0.  1.
<mgrwt>
<rscale>  2 0.58306739E+02</rscale>
<asrwt>0</asrwt>
<pdfrwt beam="1">  1       21 0.13482351E-01 0.58306739E+02</pdfrwt>
<pdfrwt beam="2">  1       21 0.10393194E-01 0.58306739E+02</pdfrwt>
<totfact> 0.34063594E+06</totfact>
</mgrwt>
</event>
<event>
 4    1  0.7499963E+004  0.2062750E+02  0.7546771E-02  0.1733130E+00
         21   -1    0    0  503  502  0.00000000000E+00  0.00000000000E+00  0.12165867631E+03  0.12165867631E+03  0.00000000000E+00 0.  1.
         21   -1    0    0  501  503 -0.00000000000E+00 -0.00000000000E+00 -0.39073538926E+01  0.39073538926E+01  0.00000000000E+00 0.  1.
          1    1    1    2  501    0 -0.52668287157E-01 -0.20627431664E+02  0.38540480909E+02  0.43713411897E+02  0.00000000000E+00 0.  1.
         -1    1    1    2    0  502  0.52668287157E-01  0.20627431664E+02  0.79210841505E+02  0.81852618302E+02  0.00000000000E+00 0. -1.
<mgrwt>
<rscale>  2 0.20627499E+02</rscale>
<asrwt>0</asrwt>
<pdfrwt beam="1">  1       21 0.18716717E-01 0.20627499E+02</pdfrwt>
<pdfrwt beam="2">  1       21 0.60113146E-03 0.20627499E+02</pdfrwt>
<totfact> 0.14302978E+08</totfact>
</mgrwt>
</event>
<event>
 4    1  0.7499963E+004  0.3555920E+02  0.7546771E-02  0.1543690E+00
         21   -1    0    0  501  502  0.00000000000E+00  0.00000000000E+00  0.80712623713E+03  0.80712623713E+03  0.00000000000E+00 0.  1.
         21   -1    0    0  502  503 -0.00000000000E+00 -0.00000000000E+00 -0.16025119724E+01  0.16025119724E+01  0.00000000000E+00 0.  1.
          3    1    1    2  501    0  0.18088867159E+02 -0.30614527449E+02  0.34224190193E+03  0.34408425690E+03  0.00000000000E+00 0.  1.
         -3    1    1    2    0  503 -0.18088867159E+02  0.30614527449E+02  0.46328182322E+03  0.46464449220E+03  0.00000000000E+00 0. -1.
<mgrwt>
<rscale>  2 0.35559196E+02</rscale>
<asrwt>0</asrwt>
<pdfrwt beam="1">  1       21 0.12417294E+00 0.35559196E+02</pdfrwt>
<pdfrwt beam="2">  1       21 0.24654095E-03 0.35559196E+02</pdfrwt>
<totfact> 0.14274668E+07</totfact>
</mgrwt>
</event>
<event>
 4    1  0.7499963E+004  0.3064891E+02  0.7546771E-02  0.1591025E+00
         21   -1    0    0  503  502  0.00000000000E+00  0.00000000000E+00  0.23221604649E+03  0.23221604649E+03  0.00000000000E+00 0.  1.
         21   -1    0    0  501  503 -0.00000000000E+00 -0.00000000000E+00 -0.42913483720E+01  0.42913483720E+01  0.00000000000E+00 0.  1.
          1    1    1    2  501    0 -0.30171203682E+02  0.53901648698E+01  0.14228507837E+03  0.14554861365E+03  0.00000000000E+00 0. -1.
         -1    1    1    2    0  502  0.30171203682E+02 -0.53901648698E+01  0.85639619758E+02  0.90958781221E+02  0.00000000000E+00 0.  1.
<mgrwt>
<rscale>  2 0.30648906E+02</rscale>
<asrwt>0</asrwt>
<pdfrwt beam="1">  1       21 0.35725536E-01 0.30648906E+02</pdfrwt>
<pdfrwt beam="2">  1       21 0.66020762E-03 0.30648906E+02</pdfrwt>
<totfact> 0.42950209E+07</totfact>
</mgrwt>
</event>
<event>
 4    1  0.7499963E+004  0.2010256E+02  0.7546771E-02  0.1743296E+00
         21   -1    0    0  503  502  0.00000000000E+00  0.00000000000E+00  0.61375050755E+02  0.61375050755E+02  0.00000000000E+00 0. -1.
         21   -1    0    0  501  503 -0.00000000000E+00 -0.00000000000E+00 -0.82589627103E+01  0.82589627103E+01  0.00000000000E+00 0. -1.
          3    1    1    2  501    0 -0.66944399406E+01 -0.18955142681E+02  0.42236012616E+02  0.46775995146E+02  0.00000000000E+00 0.  1.
         -3    1    1    2    0  502  0.66944399406E+01  0.18955142681E+02  0.10880075428E+02  0.22858018319E+02  0.00000000000E+00 0. -1.
<mgrwt>
<rscale>  2 0.20102561E+02</rscale>
<asrwt>0</asrwt>
<pdfrwt beam="1">  1       21 0.94423152E-02 0.20102561E+02</pdfrwt>
<pdfrwt beam="2">  1       21 0.12706097E-02 0.20102561E+02</pdfrwt>
<totfact> 0.14679992E+08</totfact>
</mgrwt>
</event>
<event>
 4    1  0.7499963E+004  0.2255792E+02  0.7546771E-02  0.1698778E+00
         21   -1    0    0  503  502  0.00000000000E+00  0.00000000000E+00  0.12706222336E+02  0.12706222336E+02  0.00000000000E+00 0.  1.
         21   -1    0    0  501  503 -0.00000000000E+00 -0.00000000000E+00 -0.40161406911E+02  0.40161406911E+02  0.00000000000E+00 0.  1.
          2    1    1    2  501    0  0.68515262759E+01 -0.21492238234E+02 -0.12323370258E+02  0.25704574906E+02  0.00000000000E+00 0. -1.
         -2    1    1    2    0  502 -0.68515262759E+01  0.21492238234E+02 -0.15131814318E+02  0.27163054341E+02  0.00000000000E+00 0.  1.
<mgrwt>
<rscale>  2 0.22557919E+02</rscale>
<asrwt>0</asrwt>
<pdfrwt beam="1">  1       21 0.19548035E-02 0.22557919E+02</pdfrwt>
<pdfrwt beam="2">  1       21 0.61786779E-02 0.22557919E+02</pdfrwt>
<totfact> 0.15738396E+08</totfact>
</mgrwt>
</event>
<event>
 4    1  0.7499963E+004  0.2985736E+02  0.7546771E-02  0.1599671E+00
         21   -1    0    0  501  502  0.00000000000E+00  0.00000000000E+00  0.56184115789E+01  0.56184115789E+01  0.00000000000E+00 0. -1.
         21   -1    0    0  502  503 -0.00000000000E+00 -0.00000000000E+00 -0.19640026357E+03  0.19640026357E+03  0.00000000000E+00 0. -1.
          1    1    1    2  501    0 -0.21751768825E+02 -0.20452927644E+02 -0.51117068562E+02  0.59198111410E+02  0.00000000000E+00 0.  1.
         -1    1    1    2    0  503  0.21751768825E+02  0.20452927644E+02 -0.13966478343E+03  0.14282056374E+03  0.00000000000E+00 0. -1.
<mgrwt>
<rscale>  2 0.29857356E+02</rscale>
<asrwt>0</asrwt>
<pdfrwt beam="1">  1       21 0.86437101E-03 0.29857356E+02</pdfrwt>
<pdfrwt beam="2">  1       21 0.30215425E-01 0.29857356E+02</pdfrwt>
<totfact> 0.38902727E+07</totfact>
</mgrwt>
</event>
<event>
 4    1  0.7499963E+004  0.2330129E+02  0.7546771E-02  0.1686672E+00
         21   -1    0    0  501  502  0.00000000000E+00  0.00000000000E+00  0.12678908106E+01  0.12678908106E+01  0.00000000000E+00 0.  1.
         21   -1    0    0  502  503 -0.00000000000E+00 -0.00000000000E+00 -0.50191498998E+03  0.50191498998E+03  0.00000000000E+00 0.  1.
          3    1    1    2  501    0 -0.45035474208E+01  0.22861936039E+02 -0.34672144602E+03  0.34750354126E+03  0.00000000000E+00 0.  1.
         -3    1    1    2    0  503  0.45035474208E+01 -0.22861936039E+02 -0.15392565314E+03  0.15567933952E+03  0.00000000000E+00 0. -1.
<mgrwt>
<rscale>  2 0.23301289E+02</rscale>
<asrwt>0</asrwt>
<pdfrwt beam="1">  1       21 0.19506021E-03 0.23301289E+02</pdfrwt>
<pdfrwt beam="2">  1       21 0.77217656E-01 0.23301289E+02</pdfrwt>
<totfact> 0.53126275E+07</totfact>
</mgrwt>
</event>
<event>
 4    1  0.7499963E+004  0.3015477E+02  0.7546771E-02  0.1596384E+00
         21   -1    0    0  501  502  0.00000000000E+00  0.00000000000E+00  0.89320867835E+01  0.89320867835E+01  0.00000000000E+00 0.  1.
         21   -1    0    0  502  503 -0.00000000000E+00 -0.00000000000E+00 -0.10313427533E+03  0.10313427533E+03  0.00000000000E+00 0.  1.
          4    1    1    2  501    0  0.13447904194E+02  0.26990073402E+02 -0.40734117851E+02  0.50681145869E+02  0.00000000000E+00 0.  1.
         -4    1    1    2    0  503 -0.13447904194E+02 -0.26990073402E+02 -0.53468070693E+02  0.61385216242E+02  0.00000000000E+00 0. -1.
<mgrwt>
<rscale>  2 0.30154771E+02</rscale>
<asrwt>0</asrwt>
<pdfrwt beam="1">  1       21 0.13741673E-02 0.30154771E+02</pdfrwt>
<pdfrwt beam="2">  1       21 0.15866811E-01 0.30154771E+02</pdfrwt>
<totfact> 0.60696980E+07</totfact>
</mgrwt>
</event>
<event>
 4    1  0.7499963E+004  0.4433962E+02  0.7546771E-02  0.1478507E+00
         21   -1    0    0  503  502  0.00000000000E+00  0.00000000000E+00  0.50600035000E+02  0.50600035000E+02  0.00000000000E+00 0.  1.
         21   -1    0    0  501  503 -0.00000000000E+00 -0.00000000000E+00 -0.49901877682E+02  0.49901877682E+02  0.00000000000E+00 0.  1.
          5    1    1    2  501    0 -0.19850974865E+02  0.39647710258E+02  0.23993562244E+02  0.50415207636E+02  0.00000000000E+00 0. -1.
         -5    1    1    2    0  502  0.19850974865E+02 -0.39647710258E+02 -0.23295404926E+02  0.50086705047E+02  0.00000000000E+00 0.  1.
<mgrwt>
<rscale>  2 0.44339623E+02</rscale>
<asrwt>0</asrwt>
<pdfrwt beam="1">  1       21 0.77846207E-02 0.44339623E+02</pdfrwt>
<pdfrwt beam="2">  1       21 0.76772120E-02 0.44339623E+02</pdfrwt>
<totfact> 0.14094713E+07</totfact>
</mgrwt>
</event>
<event>
 4    1  0.7499963E+004  0.2007707E+02  0.7546771E-02  0.1743800E+00
         21   -1    0    0  503  502  0.00000000000E+00  0.00000000000E+00  0.77542912045E+02  0.77542912045E+02  0.00000000000E+00 0.  1.
         21   -1    0    0  501  503 -0.00000000000E+00 -0.00000000000E+00 -0.15787869980E+02  0.15787869980E+02  0.00000000000E+00 0.  1.
          4    1    1    2  501    0 -0.93342958582E+01 -0.17775258302E+02  0.69095959996E+02  0.71953739129E+02  0.00000000000E+00 0.  1.
         -4    1    1    2    0  502  0.93342958582E+01  0.17775258302E+02 -0.73409179317E+01  0.21377042896E+02  0.00000000000E+00 0. -1.
<mgrwt>
<rscale>  2 0.20077074E+02</rscale>
<asrwt>0</asrwt>
<pdfrwt beam="1">  1       21 0.11929679E-01 0.20077074E+02</pdfrwt>
<pdfrwt beam="2">  1       21 0.24289031E-02 0.20077074E+02</pdfrwt>
<totfact> 0.37247593E+07</totfact>
</mgrwt>
</event>
<event>
 4    1  0.7499963E+004  0.3075016E+02  0.7546771E-02  0.1589942E+00
         21   -1    0    0  501  502  0.00000000000E+00  0.00000000000E+00  0.56033783630E+01  0.56033783630E+01  0.00000000000E+00 0. -1.
         21   -1    0    0  502  503 -0.00000000000E+00 -0.00000000000E+00 -0.21942022174E+03  0.21942022174E+03  0.00000000000E+00 0. -1.
          4    1    1    2  501    0 -0.10103085900E+02  0.29043071115E+02 -0.52841150841E+02  0.61137218997E+02  0.00000000000E+00 0.  1.
         -4    1    1    2    0  503  0.10103085900E+02 -0.29043071115E+02 -0.16097569254E+03  0.16388638111E+03  0.00000000000E+00 0. -1.
<mgrwt>
<rscale>  2 0.30750160E+02</rscale>
<asrwt>0</asrwt>
<pdfrwt beam="1">  1       21 0.86205808E-03 0.30750160E+02</pdfrwt>
<pdfrwt beam="2">  1       21 0.33756962E-01 0.30750160E+02</pdfrwt>
<totfact> 0.31988598E+07</totfact>
</mgrwt>
</event>
<event>
 4    1  0.7499963E+004  0.3370917E+02  0.7546771E-02  0.1560372E+00
         21   -1    0    0  503  502  0.00000000000E+00  0.00000000000E+00  0.37708615302E+02  0.37708615302E+02  0.00000000000E+00 0. -1.
         21   -1    0    0  501  503 -0.00000000000E+00 -0.00000000000E+00 -0.61448249691E+02  0.61448249691E+02  0.00000000000E+00 0. -1.
          5    1    1    2  501    0 -0.14955133920E+02  0.30210132920E+02  0.23522552062E+02  0.41104970711E+02  0.00000000000E+00 0. -1.
         -5    1    1    2    0  502  0.14955133920E+02 -0.30210132920E+02 -0.47262186452E+02  0.58051894283E+02  0.00000000000E+00 0.  1.
<mgrwt>
<rscale>  2 0.33709170E+02</rscale>
<asrwt>0</asrwt>
<pdfrwt beam="1">  1       21 0.58013254E-02 0.33709170E+02</pdfrwt>
<pdfrwt beam="2">  1       21 0.94535769E-02 0.33709170E+02</pdfrwt>
<totfact> 0.15495108E+07</totfact>
</mgrwt>
</event>
<event>
 4    1  0.7499963E+004  0.2522966E+02  0.7546771E-02  0.1657725E+00
         21   -1    0    0  503  502  0.00000000000E+00  0.00000000000E+00  0.57844943449E+00  0.57844943449E+00  0.00000000000E+00 0. -1.
         21   -1    0    0  501  503 -0.00000000000E+00 -0.00000000000E+00 -0.14813917725E+04  0.14813917725E+04  0.00000000000E+00 0. -1.
          2    1    1    2  501    0 -0.12997706548E+02  0.21623956364E+02 -0.36463644280E+03  0.36550823695E+03  0.00000000000E+00 0.  1.
         -2    1    1    2    0  502  0.12997706548E+02 -0.21623956364E+02 -0.11161768802E+04  0.11164619849E+04  0.00000000000E+00 0. -1.
<mgrwt>
<rscale>  2 0.25229662E+02</rscale>
<asrwt>0</asrwt>
<pdfrwt beam="1">  1       21 0.88993194E-04 0.25229662E+02</pdfrwt>
<pdfrwt beam="2">  1       21 0.22790393E+00 0.25229662E+02</pdfrwt>
<totfact> 0.13118772E+07</totfact>
</mgrwt>
</event>
<event>
 4    1  0.7499963E+004  0.2201340E+02  0.7546771E-02  0.1708020E+00
         21   -1    0    0  503  502  0.00000000000E+00  0.00000000000E+00  0.19481784460E+04  0.19481784460E+04  0.00000000000E+00 0.  1.
         21   -1    0    0  501  503 -0.00000000000E+00 -0.00000000000E+00 -0.27068071490E+00  0.27068071490E+00  0.00000000000E+00 0.  1.
          2    1    1    2  501    0  0.21910023760E+02 -0.21308914665E+01  0.69658601636E+03  0.69693376157E+03  0.00000000000E+00 0. -1.
         -2    1    1    2    0  502 -0.21910023760E+02  0.21308914665E+01  0.12513217489E+04  0.12515153651E+04  0.00000000000E+00 0.  1.
<mgrwt>
<rscale>  2 0.22013401E+02</rscale>
<asrwt>0</asrwt>
<pdfrwt beam="1">  1       21 0.29970853E+00 0.22013401E+02</pdfrwt>
<pdfrwt beam="2">  1       21 0.41644747E-04 0.22013401E+02</pdfrwt>
<totfact> 0.16790549E+07</totfact>
</mgrwt>
</event>
<event>
 4    1  0.7499963E+004  0.2488369E+02  0.7546771E-02  0.1662678E+00
         21   -1    0    0  503  502  0.00000000000E+00  0.00000000000E+00  0.11603073728E+01  0.11603073728E+01  0.00000000000E+00 0. -1.
         21   -1    0    0  501  503 -0.00000000000E+00 -0.00000000000E+00 -0.69532396336E+03  0.69532396336E+03  0.00000000000E+00 0. -1.
          5    1    1    2  501    0 -0.34698905130E+01 -0.24640571368E+02 -0.17915970590E+03  0.18087951271E+03  0.00000000000E+00 0.  1.
         -5    1    1    2    0  502  0.34698905130E+01  0.24640571368E+02 -0.51500395008E+03  0.51560475803E+03  0.00000000000E+00 0. -1.
<mgrwt>
<rscale>  2 0.24883687E+02</rscale>
<asrwt>0</asrwt>
<pdfrwt beam="1">  1       21 0.17850872E-03 0.24883687E+02</pdfrwt>
<pdfrwt beam="2">  1       21 0.10697298E+00 0.24883687E+02</pdfrwt>
<totfact> 0.30344877E+07</totfact>
</mgrwt>
</event>
<event>
 4    1  0.7499963E+004  0.2081426E+02  0.7546771E-02  0.1729604E+00
         21   -1    0    0  503  502  0.00000000000E+00  0.00000000000E+00  0.30506224605E+03  0.30506224605E+03  0.00000000000E+00 0.  1.
         21   -1    0    0  501  503 -0.00000000000E+00 -0.00000000000E+00 -0.14206297225E+01  0.14206297225E+01  0.00000000000E+00 0.  1.
          1    1    1    2  501    0 -0.20813880716E+02  0.12602439901E+00  0.15464290986E+03  0.15603737720E+03  0.00000000000E+00 0. -1.
         -1    1    1    2    0  502  0.20813880716E+02 -0.12602439901E+00  0.14899870647E+03  0.15044549858E+03  0.00000000000E+00 0.  1.
<mgrwt>
<rscale>  2 0.20814262E+02</rscale>
<asrwt>0</asrwt>
<pdfrwt beam="1">  1       21 0.46932601E-01 0.20814262E+02</pdfrwt>
<pdfrwt beam="2">  1       21 0.21855866E-03 0.20814262E+02</pdfrwt>
<totfact> 0.11850853E+08</totfact>
</mgrwt>
</event>
<event>
 4    1  0.7499963E+004  0.2298922E+02  0.7546771E-02  0.1691685E+00
         21   -1    0    0  503  502  0.00000000000E+00  0.00000000000E+00  0.38088465298E+02  0.38088465298E+02  0.00000000000E+00 0. -1.
         21   -1    0    0  501  503 -0.00000000000E+00 -0.00000000000E+00 -0.20564266287E+02  0.20564266287E+02  0.00000000000E+00 0. -1.
          3    1    1    2  501    0  0.20064253729E+02  0.11221844289E+02  0.25487179323E+02  0.34323466852E+02  0.00000000000E+00 0.  1.
         -3    1    1    2    0  502 -0.20064253729E+02 -0.11221844289E+02 -0.79629803115E+01  0.24329264732E+02  0.00000000000E+00 0. -1.
<mgrwt>
<rscale>  2 0.22989216E+02</rscale>
<asrwt>0</asrwt>
<pdfrwt beam="1">  1       21 0.58597639E-02 0.22989216E+02</pdfrwt>
<pdfrwt beam="2">  1       21 0.31637333E-02 0.22989216E+02</pdfrwt>
<totfact> 0.81865298E+07</totfact>
</mgrwt>
</event>
<event>
 4    1  0.7499963E+004  0.2189314E+02  0.7546771E-02  0.1710107E+00
         21   -1    0    0  501  502  0.00000000000E+00  0.00000000000E+00  0.20957998964E+03  0.20957998964E+03  0.00000000000E+00 0.  1.
         21   -1    0    0  502  503 -0.00000000000E+00 -0.00000000000E+00 -0.26233600530E+01  0.26233600530E+01  0.00000000000E+00 0.  1.
          4    1    1    2  501    0  0.20995771129E+02  0.62037974958E+01  0.65486042252E+02  0.69048759863E+02  0.00000000000E+00 0.  1.
         -4    1    1    2    0  503 -0.20995771129E+02 -0.62037974958E+01  0.14147058733E+03  0.14315458983E+03  0.00000000000E+00 0. -1.
<mgrwt>
<rscale>  2 0.21893138E+02</rscale>
<asrwt>0</asrwt>
<pdfrwt beam="1">  1       21 0.32243062E-01 0.21893138E+02</pdfrwt>
<pdfrwt beam="2">  1       21 0.40359402E-03 0.21893138E+02</pdfrwt>
<totfact> 0.99515574E+07</totfact>
</mgrwt>
</event>
<event>
 4    1  0.7499963E+004  0.4793205E+02  0.7546771E-02  0.1456826E+00
         21   -1    0    0  503  502  0.00000000000E+00  0.00000000000E+00  0.34159350907E+01  0.34159350907E+01  0.00000000000E+00 0. -1.
         21   -1    0    0  501  503 -0.00000000000E+00 -0.00000000000E+00 -0.79097301334E+03  0.79097301334E+03  0.00000000000E+00 0. -1.
          4    1    1    2  501    0 -0.29993885280E+02 -0.37387808586E+02 -0.54744879885E+03  0.54954314548E+03  0.00000000000E+00 0.  1.
         -4    1    1    2    0  502  0.29993885280E+02  0.37387808586E+02 -0.24010827940E+03  0.24484580295E+03  0.00000000000E+00 0. -1.
<mgrwt>
<rscale>  2 0.47932050E+02</rscale>
<asrwt>0</asrwt>
<pdfrwt beam="1">  1       21 0.52552746E-03 0.47932050E+02</pdfrwt>
<pdfrwt beam="2">  1       21 0.12168839E+00 0.47932050E+02</pdfrwt>
<totfact> 0.49901283E+06</totfact>
</mgrwt>
</event>
<event>
 4    1  0.7499963E+004  0.2114702E+02  0.7546771E-02  0.1723435E+00
         21   -1    0    0  501  502  0.00000000000E+00  0.00000000000E+00  0.15100819266E+02  0.15100819266E+02  0.00000000000E+00 0.  1.
         21   -1    0    0  502  503 -0.00000000000E+00 -0.00000000000E+00 -0.36888795836E+02  0.36888795836E+02  0.00000000000E+00 0.  1.
          2    1    1    2  501    0 -0.20577686792E+02  0.48739451246E+01 -0.22437768413E+02  0.30832612379E+02  0.00000000000E+00 0.  1.
         -2    1    1    2    0  503  0.20577686792E+02 -0.48739451246E+01  0.64979184328E+00  0.21157002723E+02  0.00000000000E+00 0. -1.
<mgrwt>
<rscale>  2 0.21147022E+02</rscale>
<asrwt>0</asrwt>
<pdfrwt beam="1">  1       21 0.23232030E-02 0.21147022E+02</pdfrwt>
<pdfrwt beam="2">  1       21 0.56751993E-02 0.21147022E+02</pdfrwt>
<totfact> 0.13565341E+08</totfact>
</mgrwt>
</event>
<event>
 4    1  0.7499963E+004  0.2009743E+02  0.7546771E-02  0.1743397E+00
         21   -1    0    0  501  502  0.00000000000E+00  0.00000000000E+00  0.14047082096E+02  0.14047082096E+02  0.00000000000E+00 0. -1.
         21   -1    0    0  502  503 -0.00000000000E+00 -0.00000000000E+00 -0.33429886704E+02  0.33429886704E+02  0.00000000000E+00 0. -1.
          5    1    1    2  501    0  0.17309952706E+02  0.10211376158E+02 -0.81314183482E+00  0.20113872461E+02  0.00000000000E+00 0.  1.
         -5    1    1    2    0  503 -0.17309952706E+02 -0.10211376158E+02 -0.18569662774E+02  0.27363096339E+02  0.00000000000E+00 0. -1.
<mgrwt>
<rscale>  2 0.20097429E+02</rscale>
<asrwt>0</asrwt>
<pdfrwt beam="1">  1       21 0.21610896E-02 0.20097429E+02</pdfrwt>
<pdfrwt beam="2">  1       21 0.51430594E-02 0.20097429E+02</pdfrwt>
<totfact> 0.17445783E+08</totfact>
</mgrwt>
</event>
<event>
 4    1  0.7499963E+004  0.5041721E+02  0.7546771E-02  0.1443104E+00
         21   -1    0    0  501  502  0.00000000000E+00  0.00000000000E+00  0.10196999252E+02  0.10196999252E+02  0.00000000000E+00 0.  1.
         21   -1    0    0  502  503 -0.00000000000E+00 -0.00000000000E+00 -0.24931333161E+03  0.24931333161E+03  0.00000000000E+00 0.  1.
          1    1    1    2  501    0  0.48945565847E+02 -0.12092406263E+02 -0.12108747685E+03  0.13116429299E+03  0.00000000000E+00 0. -1.
         -1    1    1    2    0  503 -0.48945565847E+02  0.12092406263E+02 -0.11802885550E+03  0.12834603787E+03  0.00000000000E+00 0.  1.
<mgrwt>
<rscale>  2 0.50417206E+02</rscale>
<asrwt>0</asrwt>
<pdfrwt beam="1">  1       21 0.15687692E-02 0.50417206E+02</pdfrwt>
<pdfrwt beam="2">  1       21 0.38355895E-01 0.50417206E+02</pdfrwt>
<totfact> 0.10784411E+07</totfact>
</mgrwt>
</event>
<event>
 4    1  0.7499963E+004  0.3914596E+02  0.7546771E-02  0.1514592E+00
         21   -1    0    0  501  502  0.00000000000E+00  0.00000000000E+00  0.29628071347E+03  0.29628071347E+03  0.00000000000E+00 0. -1.
         21   -1    0    0  502  503 -0.00000000000E+00 -0.00000000000E+00 -0.68353344547E+01  0.68353344547E+01  0.00000000000E+00 0. -1.
          2    1    1    2  501    0  0.39075065734E+02  0.23548426963E+01  0.69962525110E+02  0.80169576311E+02  0.00000000000E+00 0. -1.
         -2    1    1    2    0  503 -0.39075065734E+02 -0.23548426963E+01  0.21948285390E+03  0.22294647161E+03  0.00000000000E+00 0.  1.
<mgrwt>
<rscale>  2 0.39145958E+02</rscale>
<asrwt>0</asrwt>
<pdfrwt beam="1">  1       21 0.45581638E-01 0.39145958E+02</pdfrwt>
<pdfrwt beam="2">  1       21 0.10515901E-02 0.39145958E+02</pdfrwt>
<totfact> 0.13855366E+07</totfact>
</mgrwt>
</event>
<event>
 4    1  0.7499963E+004  0.3245229E+02  0.7546771E-02  0.1572463E+00
         21   -1    0    0  503  502  0.00000000000E+00  0.00000000000E+00  0.10069856096E+02  0.10069856096E+02  0.00000000000E+00 0. -1.
         21   -1    0    0  501  503 -0.00000000000E+00 -0.00000000000E+00 -0.11698529458E+03  0.11698529458E+03  0.00000000000E+00 0. -1.
          1    1    1    2  501    0 -0.30890840748E+02  0.99452182111E+01 -0.32774389447E+02  0.46122792749E+02  0.00000000000E+00 0. -1.
         -1    1    1    2    0  502  0.30890840748E+02 -0.99452182111E+01 -0.74141049041E+02  0.80932357931E+02  0.00000000000E+00 0.  1.
<mgrwt>
<rscale>  2 0.32452294E+02</rscale>
<asrwt>0</asrwt>
<pdfrwt beam="1">  1       21 0.15492086E-02 0.32452294E+02</pdfrwt>
<pdfrwt beam="2">  1       21 0.17997738E-01 0.32452294E+02</pdfrwt>
<totfact> 0.41177620E+07</totfact>
</mgrwt>
</event>
<event>
 4    1  0.7499963E+004  0.2065069E+02  0.7546771E-02  0.1732689E+00
         21   -1    0    0  501  502  0.00000000000E+00  0.00000000000E+00  0.31363518826E+03  0.31363518826E+03  0.00000000000E+00 0. -1.
         21   -1    0    0  502  503 -0.00000000000E+00 -0.00000000000E+00 -0.16567353747E+01  0.16567353747E+01  0.00000000000E+00 0. -1.
          5    1    1    2  501    0  0.18091703319E+02  0.99569800465E+01  0.22274011729E+03  0.22369535317E+03  0.00000000000E+00 0.  1.
         -5    1    1    2    0  503 -0.18091703319E+02 -0.99569800465E+01  0.89238335594E+02  0.91596570461E+02  0.00000000000E+00 0. -1.
<mgrwt>
<rscale>  2 0.20650694E+02</rscale>
<asrwt>0</asrwt>
<pdfrwt beam="1">  1       21 0.48251520E-01 0.20650694E+02</pdfrwt>
<pdfrwt beam="2">  1       21 0.25488261E-03 0.20650694E+02</pdfrwt>
<totfact> 0.89798461E+07</totfact>
</mgrwt>
</event>
<event>
 4    1  0.7499963E+004  0.2041965E+02  0.7546771E-02  0.1737109E+00
         21   -1    0    0  501  502  0.00000000000E+00  0.00000000000E+00  0.21639483200E+03  0.21639483200E+03  0.00000000000E+00 0.  1.
         21   -1    0    0  502  503 -0.00000000000E+00 -0.00000000000E+00 -0.23047172438E+01  0.23047172438E+01  0.00000000000E+00 0.  1.
          3    1    1    2  501    0  0.19235002575E+02 -0.68539654389E+01  0.62768489272E+02  0.66006404324E+02  0.00000000000E+00 0. -1.
         -3    1    1    2    0  503 -0.19235002575E+02  0.68539654389E+01  0.15132162549E+03  0.15269314492E+03  0.00000000000E+00 0.  1.
<mgrwt>
<rscale>  2 0.20419651E+02</rscale>
<asrwt>0</asrwt>
<pdfrwt beam="1">  1       21 0.33291497E-01 0.20419651E+02</pdfrwt>
<pdfrwt beam="2">  1       21 0.35457205E-03 0.20419651E+02</pdfrwt>
<totfact> 0.11123225E+08</totfact>
</mgrwt>
</event>
<event>
 4    1  0.7499963E+004  0.2500082E+02  0.7546771E-02  0.1660990E+00
         21   -1    0    0  501  502  0.00000000000E+00  0.00000000000E+00  0.40075804139E+00  0.40075804139E+00  0.00000000000E+00 0. -1.
         21   -1    0    0  502  503 -0.00000000000E+00 -0.00000000000E+00 -0.17012300839E+04  0.17012300839E+04  0.00000000000E+00 0. -1.
          2    1    1    2  501    0  0.15716075223E+02 -0.19443406888E+02 -0.10958626377E+04  0.10961477828E+04  0.00000000000E+00 0.  1.
         -2    1    1    2    0  503 -0.15716075223E+02  0.19443406888E+02 -0.60496668821E+03  0.60548305917E+03  0.00000000000E+00 0. -1.
<mgrwt>
<rscale>  2 0.25000822E+02</rscale>
<asrwt>0</asrwt>
<pdfrwt beam="1">  1       21 0.61655358E-04 0.25000822E+02</pdfrwt>
<pdfrwt beam="2">  1       21 0.26172654E+00 0.25000822E+02</pdfrwt>
<totfact> 0.14881168E+07</totfact>
</mgrwt>
</event>
<event>
 4    1  0.7499963E+004  0.2068166E+02  0.7546771E-02  0.1732103E+00
         21   -1    0    0  501  502  0.00000000000E+00  0.00000000000E+00  0.47455463608E+03  0.47455463608E+03  0.00000000000E+00 0.  1.
         21   -1    0    0  502  503 -0.00000000000E+00 -0.00000000000E+00 -0.90260269727E+00  0.90260269727E+00  0.00000000000E+00 0.  1.
          2    1    1    2  501    0 -0.15070847016E+02 -0.14163353672E+02  0.22790429609E+03  0.22884077257E+03  0.00000000000E+00 0. -1.
         -2    1    1    2    0  503  0.15070847016E+02  0.14163353672E+02  0.24574773729E+03  0.24661646620E+03  0.00000000000E+00 0.  1.
<mgrwt>
<rscale>  2 0.20681659E+02</rscale>
<asrwt>0</asrwt>
<pdfrwt beam="1">  1       21 0.73008206E-01 0.20681659E+02</pdfrwt>
<pdfrwt beam="2">  1       21 0.13886233E-03 0.20681659E+02</pdfrwt>
<totfact> 0.94400543E+07</totfact>
</mgrwt>
</event>
<event>
 4    1  0.7499963E+004  0.2464978E+02  0.7546771E-02  0.1666084E+00
         21   -1    0    0  503  502  0.00000000000E+00  0.00000000000E+00  0.22760528332E+03  0.22760528332E+03  0.00000000000E+00 0. -1.
         21   -1    0    0  501  503 -0.00000000000E+00 -0.00000000000E+00 -0.31800776307E+01  0.31800776307E+01  0.00000000000E+00 0. -1.
          5    1    1    2  501    0  0.22404115144E+02  0.10279447344E+02  0.65979335908E+02  0.70433544422E+02  0.00000000000E+00 0. -1.
         -5    1    1    2    0  502 -0.22404115144E+02 -0.10279447344E+02  0.15844586978E+03  0.16035181653E+03  0.00000000000E+00 0.  1.
<mgrwt>
<rscale>  2 0.24649775E+02</rscale>
<asrwt>0</asrwt>
<pdfrwt beam="1">  1       21 0.35016185E-01 0.24649775E+02</pdfrwt>
<pdfrwt beam="2">  1       21 0.48924289E-03 0.24649775E+02</pdfrwt>
<totfact> 0.66402591E+07</totfact>
</mgrwt>
</event>
<event>
 4    1  0.7499963E+004  0.3084007E+02  0.7546771E-02  0.1588984E+00
         21   -1    0    0  501  502  0.00000000000E+00  0.00000000000E+00  0.65121932611E+02  0.65121932611E+02  0.00000000000E+00 0. -1.
         21   -1    0    0  502  503 -0.00000000000E+00 -0.00000000000E+00 -0.15062822428E+02  0.15062822428E+02  0.00000000000E+00 0. -1.
          5    1    1    2  501    0  0.19205858857E+02  0.24129745583E+02  0.18040323846E+02  0.35729020708E+02  0.00000000000E+00 0.  1.
         -5    1    1    2    0  503 -0.19205858857E+02 -0.24129745583E+02  0.32018786338E+02  0.44455734330E+02  0.00000000000E+00 0. -1.
<mgrwt>
<rscale>  2 0.30840065E+02</rscale>
<asrwt>0</asrwt>
<pdfrwt beam="1">  1       21 0.10018759E-01 0.30840065E+02</pdfrwt>
<pdfrwt beam="2">  1       21 0.23173573E-02 0.30840065E+02</pdfrwt>
<totfact> 0.59481364E+07</totfact>
</mgrwt>
</event>
<event>
 4    1  0.7499963E+004  0.2481862E+02  0.7546771E-02  0.1663621E+00
         21   -1    0    0  503  502  0.00000000000E+00  0.00000000000E+00  0.11756724233E+03  0.11756724233E+03  0.00000000000E+00 0.  1.
         21   -1    0    0  501  503 -0.00000000000E+00 -0.00000000000E+00 -0.56759510855E+01  0.56759510855E+01  0.00000000000E+00 0.  1.
          5    1    1    2  501    0 -0.24807156872E+02  0.75425921573E+00  0.73038191583E+02  0.77139752196E+02  0.00000000000E+00 0.  1.
         -5    1    1    2    0  502  0.24807156872E+02 -0.75425921573E+00  0.38853099659E+02  0.46103441218E+02  0.00000000000E+00 0. -1.
<mgrwt>
<rscale>  2 0.24818621E+02</rscale>
<asrwt>0</asrwt>
<pdfrwt beam="1">  1       21 0.18087266E-01 0.24818621E+02</pdfrwt>
<pdfrwt beam="2">  1       21 0.87322333E-03 0.24818621E+02</pdfrwt>
<totfact> 0.91732533E+07</totfact>
</mgrwt>
</event>
<event>
 4    1  0.7499963E+004  0.3237128E+02  0.7546771E-02  0.1573265E+00
         21   -1    0    0  501  502  0.00000000000E+00  0.00000000000E+00  0.36992958438E+02  0.36992958438E+02  0.00000000000E+00 0.  1.
         21   -1    0    0  502  503 -0.00000000000E+00 -0.00000000000E+00 -0.31322903286E+02  0.31322903286E+02  0.00000000000E+00 0.  1.
          5    1    1    2  501    0 -0.19783543088E+02  0.25622473188E+02 -0.77288680284E+01  0.33281152480E+02  0.00000000000E+00 0. -1.
         -5    1    1    2    0  503  0.19783543088E+02 -0.25622473188E+02  0.13398923181E+02  0.35034709244E+02  0.00000000000E+00 0.  1.
<mgrwt>
<rscale>  2 0.32371279E+02</rscale>
<asrwt>0</asrwt>
<pdfrwt beam="1">  1       21 0.56912244E-02 0.32371279E+02</pdfrwt>
<pdfrwt beam="2">  1       21 0.48189082E-02 0.32371279E+02</pdfrwt>
<totfact> 0.47883167E+07</totfact>
</mgrwt>
</event>
<event>
 4    1  0.7499963E+004  0.2616094E+02  0.7546771E-02  0.1644866E+00
         21   -1    0    0  501  502  0.00000000000E+00  0.00000000000E+00  0.76387146386E+02  0.76387146386E+02  0.00000000000E+00 0.  1.
         21   -1    0    0  502  503 -0.00000000000E+00 -0.00000000000E+00 -0.95587917947E+01  0.95587917947E+01  0.00000000000E+00 0.  1.
          3    1    1    2  501    0 -0.11021605447E+02  0.23725916437E+02  0.44173695404E+02  0.51339168897E+02  0.00000000000E+00 0.  1.
         -3    1    1    2    0  503  0.11021605447E+02 -0.23725916437E+02  0.22654659187E+02  0.34606769284E+02  0.00000000000E+00 0. -1.
<mgrwt>
<rscale>  2 0.26160942E+02</rscale>
<asrwt>0</asrwt>
<pdfrwt beam="1">  1       21 0.11751868E-01 0.26160942E+02</pdfrwt>
<pdfrwt beam="2">  1       21 0.14705834E-02 0.26160942E+02</pdfrwt>
<totfact> 0.88205723E+07</totfact>
</mgrwt>
</event>
<event>
 4    1  0.7499963E+004  0.2034118E+02  0.7546771E-02  0.1738627E+00
         21   -1    0    0  501  502  0.00000000000E+00  0.00000000000E+00  0.58841245783E+02  0.58841245783E+02  0.00000000000E+00 0. -1.
         21   -1    0    0  502  503 -0.00000000000E+00 -0.00000000000E+00 -0.70535371771E+01  0.70535371771E+01  0.00000000000E+00 0. -1.
          1    1    1    2  501    0 -0.18927138012E+02  0.74516518651E+01  0.27720160454E+02  0.34382713163E+02  0.00000000000E+00 0.  1.
         -1    1    1    2    0  503  0.18927138012E+02 -0.74516518651E+01  0.24067548151E+02  0.31512069797E+02  0.00000000000E+00 0. -1.
<mgrwt>
<rscale>  2 0.20341182E+02</rscale>
<asrwt>0</asrwt>
<pdfrwt beam="1">  1       21 0.90524990E-02 0.20341182E+02</pdfrwt>
<pdfrwt beam="2">  1       21 0.10851596E-02 0.20341182E+02</pdfrwt>
<totfact> 0.20010650E+08</totfact>
</mgrwt>
</event>
<event>
 4    1  0.7499963E+004  0.2407052E+02  0.7546771E-02  0.1674723E+00
         21   -1    0    0  503  502  0.00000000000E+00  0.00000000000E+00  0.85747717612E+03  0.85747717612E+03  0.00000000000E+00 0.  1.
         21   -1    0    0  501  503 -0.00000000000E+00 -0.00000000000E+00 -0.73776944093E+00  0.73776944093E+00  0.00000000000E+00 0.  1.
          4    1    1    2  501    0  0.21104686112E+02  0.11575057797E+02  0.55284283717E+03  0.55336659851E+03  0.00000000000E+00 0.  1.
         -4    1    1    2    0  502 -0.21104686112E+02 -0.11575057797E+02  0.30389656952E+03  0.30484834706E+03  0.00000000000E+00 0. -1.
<mgrwt>
<rscale>  2 0.24070516E+02</rscale>
<asrwt>0</asrwt>
<pdfrwt beam="1">  1       21 0.13191877E+00 0.24070516E+02</pdfrwt>
<pdfrwt beam="2">  1       21 0.11350368E-03 0.24070516E+02</pdfrwt>
<totfact> 0.35925598E+07</totfact>
</mgrwt>
</event>
<event>
 4    1  0.7499963E+004  0.2185645E+02  0.7546771E-02  0.1710747E+00
         21   -1    0    0  503  502  0.00000000000E+00  0.00000000000E+00  0.93034431711E+00  0.93034431711E+00  0.00000000000E+00 0. -1.
         21   -1    0    0  501  503 -0.00000000000E+00 -0.00000000000E+00 -0.51478671396E+03  0.51478671396E+03  0.00000000000E+00 0. -1.
          3    1    1    2  501    0 -0.15119985084E+02  0.15782598041E+02 -0.26996685128E+03  0.27085015256E+03  0.00000000000E+00 0. -1.
         -3    1    1    2    0  502  0.15119985084E+02 -0.15782598041E+02 -0.24388951836E+03  0.24486690572E+03  0.00000000000E+00 0.  1.
<mgrwt>
<rscale>  2 0.21856449E+02</rscale>
<asrwt>0</asrwt>
<pdfrwt beam="1">  1       21 0.14312966E-03 0.21856449E+02</pdfrwt>
<pdfrwt beam="2">  1       21 0.79198089E-01 0.21856449E+02</pdfrwt>
<totfact> 0.77452394E+07</totfact>
</mgrwt>
</event>
<event>
 4    1  0.7499963E+004  0.4034058E+02  0.7546771E-02  0.1505720E+00
         21   -1    0    0  501  502  0.00000000000E+00  0.00000000000E+00  0.12197586584E+03  0.12197586584E+03  0.00000000000E+00 0.  1.
         21   -1    0    0  502  503 -0.00000000000E+00 -0.00000000000E+00 -0.14540182902E+02  0.14540182902E+02  0.00000000000E+00 0.  1.
          3    1    1    2  501    0  0.38290880542E+02 -0.12695323329E+02  0.73314797817E+02  0.83680477688E+02  0.00000000000E+00 0.  1.
         -3    1    1    2    0  503 -0.38290880542E+02  0.12695323329E+02  0.34120885117E+02  0.52835571051E+02  0.00000000000E+00 0. -1.
<mgrwt>
<rscale>  2 0.40340585E+02</rscale>
<asrwt>0</asrwt>
<pdfrwt beam="1">  1       21 0.18765517E-01 0.40340585E+02</pdfrwt>
<pdfrwt beam="2">  1       21 0.22369513E-02 0.40340585E+02</pdfrwt>
<totfact> 0.22472631E+07</totfact>
</mgrwt>
</event>
<event>
 4    1  0.7499963E+004  0.3272838E+02  0.7546771E-02  0.1569751E+00
         21   -1    0    0  501  502  0.00000000000E+00  0.00000000000E+00  0.16122785423E+02  0.16122785423E+02  0.00000000000E+00 0.  1.
         21   -1    0    0  502  503 -0.00000000000E+00 -0.00000000000E+00 -0.66903902100E+02  0.66903902100E+02  0.00000000000E+00 0.  1.
          3    1    1    2  501    0 -0.21775095524E+02 -0.24433418532E+02 -0.21921954000E+02  0.39391862021E+02  0.00000000000E+00 0. -1.
         -3    1    1    2    0  503  0.21775095524E+02  0.24433418532E+02 -0.28859162676E+02  0.43634825502E+02  0.00000000000E+00 0.  1.
<mgrwt>
<rscale>  2 0.32728378E+02</rscale>
<asrwt>0</asrwt>
<pdfrwt beam="1">  1       21 0.24804285E-02 0.32728378E+02</pdfrwt>
<pdfrwt beam="2">  1       21 0.10292908E-01 0.32728378E+02</pdfrwt>
<totfact> 0.51780719E+07</totfact>
</mgrwt>
</event>
<event>
 4    1  0.7499963E+004  0.2415068E+02  0.7546771E-02  0.1673509E+00
         21   -1    0    0  503  502  0.00000000000E+00  0.00000000000E+00  0.51034404484E+03  0.51034404484E+03  0.00000000000E+00 0. -1.
         21   -1    0    0  501  503 -0.00000000000E+00 -0.00000000000E+00 -0.12871718146E+01  0.12871718146E+01  0.00000000000E+00 0. -1.
          2    1    1    2  501    0 -0.23925161317E+02 -0.32927156520E+01  0.34018276757E+03  0.34103895770E+03  0.00000000000E+00 0.  1.
         -2    1    1    2    0  502  0.23925161317E+02  0.32927156520E+01  0.16887410546E+03  0.17059225895E+03  0.00000000000E+00 0. -1.
<mgrwt>
<rscale>  2 0.24150680E+02</rscale>
<asrwt>0</asrwt>
<pdfrwt beam="1">  1       21 0.78514307E-01 0.24150680E+02</pdfrwt>
<pdfrwt beam="2">  1       21 0.19802684E-03 0.24150680E+02</pdfrwt>
<totfact> 0.50605304E+07</totfact>
</mgrwt>
</event>
<event>
 4    1  0.7499963E+004  0.3628147E+02  0.7546771E-02  0.1537507E+00
         21   -1    0    0  503  502  0.00000000000E+00  0.00000000000E+00  0.31263843677E+01  0.31263843677E+01  0.00000000000E+00 0. -1.
         21   -1    0    0  501  503 -0.00000000000E+00 -0.00000000000E+00 -0.49181081345E+03  0.49181081345E+03  0.00000000000E+00 0. -1.
          3    1    1    2  501    0 -0.35971518679E+02 -0.47323267795E+01 -0.33821423903E+03  0.34015469504E+03  0.00000000000E+00 0.  1.
         -3    1    1    2    0  502  0.35971518679E+02  0.47323267795E+01 -0.15047019005E+03  0.15478250278E+03  0.00000000000E+00 0. -1.
<mgrwt>
<rscale>  2 0.36281470E+02</rscale>
<asrwt>0</asrwt>
<pdfrwt beam="1">  1       21 0.48098226E-03 0.36281470E+02</pdfrwt>
<pdfrwt beam="2">  1       21 0.75663194E-01 0.36281470E+02</pdfrwt>
<totfact> 0.15956495E+07</totfact>
</mgrwt>
</event>
<event>
 4    1  0.7499963E+004  0.2724485E+02  0.7546771E-02  0.1630705E+00
         21   -1    0    0  501  502  0.00000000000E+00  0.00000000000E+00  0.13583734903E+02  0.13583734903E+02  0.00000000000E+00 0.  1.
         21   -1    0    0  502  503 -0.00000000000E+00 -0.00000000000E+00 -0.73594406617E+02  0.73594406617E+02  0.00000000000E+00 0.  1.
          4    1    1    2  501    0  0.26565805878E+02  0.60448195192E+01 -0.78869149455E+01  0.28363450289E+02  0.00000000000E+00 0. -1.
         -4    1    1    2    0  503 -0.26565805878E+02 -0.60448195192E+01 -0.52123756769E+02  0.58814691231E+02  0.00000000000E+00 0.  1.
<mgrwt>
<rscale>  2 0.27244851E+02</rscale>
<asrwt>0</asrwt>
<pdfrwt beam="1">  1       21 0.20898053E-02 0.27244851E+02</pdfrwt>
<pdfrwt beam="2">  1       21 0.11322217E-01 0.27244851E+02</pdfrwt>
<totfact> 0.55284277E+07</totfact>
</mgrwt>
</event>
<event>
 4    1  0.7499963E+004  0.2313713E+02  0.7546771E-02  0.1689297E+00
         21   -1    0    0  501  502  0.00000000000E+00  0.00000000000E+00  0.52771944977E+03  0.52771944977E+03  0.00000000000E+00 0.  1.
         21   -1    0    0  502  503 -0.00000000000E+00 -0.00000000000E+00 -0.10158127165E+01  0.10158127165E+01  0.00000000000E+00 0.  1.
          1    1    1    2  501    0  0.21185473384E+02 -0.93006705748E+01  0.27315672113E+03  0.27413485925E+03  0.00000000000E+00 0. -1.
         -1    1    1    2    0  503 -0.21185473384E+02  0.93006705748E+01  0.25354691593E+03  0.25460040324E+03  0.00000000000E+00 0.  1.
<mgrwt>
<rscale>  2 0.23137129E+02</rscale>
<asrwt>0</asrwt>
<pdfrwt beam="1">  1       21 0.81187389E-01 0.23137129E+02</pdfrwt>
<pdfrwt beam="2">  1       21 0.15627930E-03 0.23137129E+02</pdfrwt>
<totfact> 0.65709899E+07</totfact>
</mgrwt>
</event>
<event>
 4    1  0.7499963E+004  0.2288791E+02  0.7546771E-02  0.1693333E+00
         21   -1    0    0  503  502  0.00000000000E+00  0.00000000000E+00  0.13714783756E+01  0.13714783756E+01  0.00000000000E+00 0.  1.
         21   -1    0    0  501  503 -0.00000000000E+00 -0.00000000000E+00 -0.38339860628E+03  0.38339860628E+03  0.00000000000E+00 0.  1.
          2    1    1    2  501    0  0.13784366971E+02  0.18271503336E+02 -0.17924901103E+03  0.18070435679E+03  0.00000000000E+00 0.  1.
         -2    1    1    2    0  502 -0.13784366971E+02 -0.18271503336E+02 -0.20277811687E+03  0.20406572786E+03  0.00000000000E+00 0. -1.
<mgrwt>
<rscale>  2 0.22887914E+02</rscale>
<asrwt>0</asrwt>
<pdfrwt beam="1">  1       21 0.21099667E-03 0.22887914E+02</pdfrwt>
<pdfrwt beam="2">  1       21 0.58984401E-01 0.22887914E+02</pdfrwt>
<totfact> 0.81785142E+07</totfact>
</mgrwt>
</event>
<event>
 4    1  0.7499963E+004  0.3072354E+02  0.7546771E-02  0.1590226E+00
         21   -1    0    0  501  502  0.00000000000E+00  0.00000000000E+00  0.84357613806E+03  0.84357613806E+03  0.00000000000E+00 0. -1.
         21   -1    0    0  502  503 -0.00000000000E+00 -0.00000000000E+00 -0.12492897034E+01  0.12492897034E+01  0.00000000000E+00 0. -1.
          2    1    1    2  501    0 -0.30700945475E+02 -0.11780654721E+01  0.55759391128E+03  0.55843970649E+03  0.00000000000E+00 0. -1.
         -2    1    1    2    0  503  0.30700945475E+02  0.11780654721E+01  0.28473293707E+03  0.28638572127E+03  0.00000000000E+00 0.  1.
<mgrwt>
<rscale>  2 0.30723540E+02</rscale>
<asrwt>0</asrwt>
<pdfrwt beam="1">  1       21 0.12978049E+00 0.30723540E+02</pdfrwt>
<pdfrwt beam="2">  1       21 0.19219909E-03 0.30723540E+02</pdfrwt>
<totfact> 0.18177790E+07</totfact>
</mgrwt>
</event>
<event>
 4    1  0.7499963E+004  0.2320655E+02  0.7546771E-02  0.1688184E+00
         21   -1    0    0  501  502  0.00000000000E+00  0.00000000000E+00  0.74978215068E+01  0.74978215068E+01  0.00000000000E+00 0. -1.
         21   -1    0    0  502  503 -0.00000000000E+00 -0.00000000000E+00 -0.72403617533E+02  0.72403617533E+02  0.00000000000E+00 0. -1.
          3    1    1    2  501    0 -0.23202512966E+02  0.43282703306E+00 -0.28886804312E+02  0.37053898722E+02  0.00000000000E+00 0.  1.
         -3    1    1    2    0  503  0.23202512966E+02 -0.43282703306E+00 -0.36018991714E+02  0.42847540317E+02  0.00000000000E+00 0. -1.
<mgrwt>
<rscale>  2 0.23206550E+02</rscale>
<asrwt>0</asrwt>
<pdfrwt beam="1">  1       21 0.11535110E-02 0.23206550E+02</pdfrwt>
<pdfrwt beam="2">  1       21 0.11139018E-01 0.23206550E+02</pdfrwt>
<totfact> 0.13496661E+08</totfact>
</mgrwt>
</event>
<event>
 4    1  0.7499963E+004  0.3196674E+02  0.7546771E-02  0.1577314E+00
         21   -1    0    0  501  502  0.00000000000E+00  0.00000000000E+00  0.12787842560E+03  0.12787842560E+03  0.00000000000E+00 0. -1.
         21   -1    0    0  502  503 -0.00000000000E+00 -0.00000000000E+00 -0.85218053022E+01  0.85218053022E+01  0.00000000000E+00 0. -1.
          2    1    1    2  501    0  0.93988369811E+01  0.30553792367E+02  0.42656718878E+02  0.53305422145E+02  0.00000000000E+00 0. -1.
         -2    1    1    2    0  503 -0.93988369811E+01 -0.30553792367E+02  0.76699901422E+02  0.83094808760E+02  0.00000000000E+00 0.  1.
<mgrwt>
<rscale>  2 0.31966738E+02</rscale>
<asrwt>0</asrwt>
<pdfrwt beam="1">  1       21 0.19673603E-01 0.31966738E+02</pdfrwt>
<pdfrwt beam="2">  1       21 0.13110471E-02 0.31966738E+02</pdfrwt>
<totfact> 0.45354266E+07</totfact>
</mgrwt>
</event>
<event>
 4    1  0.7499963E+004  0.2035529E+02  0.7546771E-02  0.1738354E+00
         21   -1    0    0  503  502  0.00000000000E+00  0.00000000000E+00  0.16400999864E+03  0.16400999864E+03  0.00000000000E+00 0.  1.
         21   -1    0    0  501  503 -0.00000000000E+00 -0.00000000000E+00 -0.26051507002E+01  0.26051507002E+01  0.00000000000E+00 0.  1.
          5    1    1    2  501    0 -0.20343618476E+02 -0.68908666799E+00  0.66208553249E+02  0.69266948659E+02  0.00000000000E+00 0. -1.
         -5    1    1    2    0  502  0.20343618476E+02  0.68908666799E+00  0.95196294692E+02  0.97348200683E+02  0.00000000000E+00 0.  1.
<mgrwt>
<rscale>  2 0.20355286E+02</rscale>
<asrwt>0</asrwt>
<pdfrwt beam="1">  1       21 0.25232299E-01 0.20355286E+02</pdfrwt>
<pdfrwt beam="2">  1       21 0.40079254E-03 0.20355286E+02</pdfrwt>
<totfact> 0.15317650E+08</totfact>
</mgrwt>
</event>
<event>
 4    1  0.7499963E+004  0.2132094E+02  0.7546771E-02  0.1720268E+00
         21   -1    0    0  503  502  0.00000000000E+00  0.00000000000E+00  0.16842157079E+03  0.16842157079E+03  0.00000000000E+00 0. -1.
         21   -1    0    0  501  503 -0.00000000000E+00 -0.00000000000E+00 -0.28754742249E+01  0.28754742249E+01  0.00000000000E+00 0. -1.
          3    1    1    2  501    0  0.16009353142E+02  0.14081306371E+02  0.61559537373E+02  0.65147211903E+02  0.00000000000E+00 0.  1.
         -3    1    1    2    0  502 -0.16009353142E+02 -0.14081306371E+02  0.10398655919E+03  0.10614983311E+03  0.00000000000E+00 0. -1.
<mgrwt>
<rscale>  2 0.21320942E+02</rscale>
<asrwt>0</asrwt>
<pdfrwt beam="1">  1       21 0.25911003E-01 0.21320942E+02</pdfrwt>
<pdfrwt beam="2">  1       21 0.44238078E-03 0.21320942E+02</pdfrwt>
<totfact> 0.12817466E+08</totfact>
</mgrwt>
</event>
<event>
 4    1  0.7499963E+004  0.2410549E+02  0.7546771E-02  0.1674193E+00
         21   -1    0    0  503  502  0.00000000000E+00  0.00000000000E+00  0.18320974601E+02  0.18320974601E+02  0.00000000000E+00 0. -1.
         21   -1    0    0  501  503 -0.00000000000E+00 -0.00000000000E+00 -0.31822295983E+02  0.31822295983E+02  0.00000000000E+00 0. -1.
          1    1    1    2  501    0  0.10896055453E+02  0.21502338820E+02 -0.81972380392E+01  0.25461133333E+02  0.00000000000E+00 0.  1.
         -1    1    1    2    0  502 -0.10896055453E+02 -0.21502338820E+02 -0.53040833425E+01  0.24682137251E+02  0.00000000000E+00 0. -1.
<mgrwt>
<rscale>  2 0.24105489E+02</rscale>
<asrwt>0</asrwt>
<pdfrwt beam="1">  1       21 0.28186115E-02 0.24105489E+02</pdfrwt>
<pdfrwt beam="2">  1       21 0.48957378E-02 0.24105489E+02</pdfrwt>
<totfact> 0.13244044E+08</totfact>
</mgrwt>
</event>
<event>
 4    1  0.7499963E+004  0.2082915E+02  0.7546771E-02  0.1729325E+00
         21   -1    0    0  501  502  0.00000000000E+00  0.00000000000E+00  0.85667167147E+02  0.85667167147E+02  0.00000000000E+00 0.  1.
         21   -1    0    0  502  503 -0.00000000000E+00 -0.00000000000E+00 -0.51238698644E+01  0.51238698644E+01  0.00000000000E+00 0.  1.
          1    1    1    2  501    0 -0.14161003908E+02 -0.15274798924E+02  0.45161909618E+02  0.49733807357E+02  0.00000000000E+00 0.  1.
         -1    1    1    2    0  503  0.14161003908E+02  0.15274798924E+02  0.35381387664E+02  0.41057229654E+02  0.00000000000E+00 0. -1.
<mgrwt>
<rscale>  2 0.20829151E+02</rscale>
<asrwt>0</asrwt>
<pdfrwt beam="1">  1       21 0.13179563E-01 0.20829151E+02</pdfrwt>
<pdfrwt beam="2">  1       21 0.78828773E-03 0.20829151E+02</pdfrwt>
<totfact> 0.17438613E+08</totfact>
</mgrwt>
</event>
<event>
 4    1  0.7499963E+004  0.2610109E+02  0.7546771E-02  0.1645672E+00
         21   -1    0    0  503  502  0.00000000000E+00  0.00000000000E+00  0.24141906074E+02  0.24141906074E+02  0.00000000000E+00 0. -1.
         21   -1    0    0  501  503 -0.00000000000E+00 -0.00000000000E+00 -0.37567037434E+02  0.37567037434E+02  0.00000000000E+00 0. -1.
          4    1    1    2  501    0  0.43321980107E+01 -0.25739059857E+02  0.86784904362E+01  0.27506060027E+02  0.00000000000E+00 0. -1.
         -4    1    1    2    0  502 -0.43321980107E+01  0.25739059857E+02 -0.22103621796E+02  0.34202883481E+02  0.00000000000E+00 0.  1.
<mgrwt>
<rscale>  2 0.26101095E+02</rscale>
<asrwt>0</asrwt>
<pdfrwt beam="1">  1       21 0.37141394E-02 0.26101095E+02</pdfrwt>
<pdfrwt beam="2">  1       21 0.57795442E-02 0.26101095E+02</pdfrwt>
<totfact> 0.67292963E+07</totfact>
</mgrwt>
</event>
<event>
 4    1  0.7499963E+004  0.3337871E+02  0.7546771E-02  0.1563488E+00
         21   -1    0    0  501  502  0.00000000000E+00  0.00000000000E+00  0.39352775725E+02  0.39352775725E+02  0.00000000000E+00 0.  1.
         21   -1    0    0  502  503 -0.00000000000E+00 -0.00000000000E+00 -0.32850200177E+02  0.32850200177E+02  0.00000000000E+00 0.  1.
          1    1    1    2  501    0 -0.25487849514E+02 -0.21552446296E+02  0.16670253318E+02  0.37309995442E+02  0.00000000000E+00 0. -1.
         -1    1    1    2    0  503  0.25487849514E+02  0.21552446296E+02 -0.10167677769E+02  0.34892980460E+02  0.00000000000E+00 0.  1.
<mgrwt>
<rscale>  2 0.33378712E+02</rscale>
<asrwt>0</asrwt>
<pdfrwt beam="1">  1       21 0.60542732E-02 0.33378712E+02</pdfrwt>
<pdfrwt beam="2">  1       21 0.50538770E-02 0.33378712E+02</pdfrwt>
<totfact> 0.40359857E+07</totfact>
</mgrwt>
</event>
<event>
 4    1  0.7499963E+004  0.3580329E+02  0.7546771E-02  0.1541581E+00
         21   -1    0    0  501  502  0.00000000000E+00  0.00000000000E+00  0.11251109937E+03  0.11251109937E+03  0.00000000000E+00 0.  1.
         21   -1    0    0  502  503 -0.00000000000E+00 -0.00000000000E+00 -0.11707028578E+02  0.11707028578E+02  0.00000000000E+00 0.  1.
          2    1    1    2  501    0  0.30818176980E+02 -0.18224042881E+02  0.40235105183E+02  0.53858513351E+02  0.00000000000E+00 0.  1.
         -2    1    1    2    0  503 -0.30818176980E+02  0.18224042881E+02  0.60568965608E+02  0.70359614597E+02  0.00000000000E+00 0. -1.
<mgrwt>
<rscale>  2 0.35803293E+02</rscale>
<asrwt>0</asrwt>
<pdfrwt beam="1">  1       21 0.17309399E-01 0.35803293E+02</pdfrwt>
<pdfrwt beam="2">  1       21 0.18010814E-02 0.35803293E+02</pdfrwt>
<totfact> 0.35610815E+07</totfact>
</mgrwt>
</event>
<event>
 4    1  0.7499963E+004  0.2171027E+02  0.7546771E-02  0.1713312E+00
         21   -1    0    0  503  502  0.00000000000E+00  0.00000000000E+00  0.41514908656E+02  0.41514908656E+02  0.00000000000E+00 0.  1.
         21   -1    0    0  501  503 -0.00000000000E+00 -0.00000000000E+00 -0.19215085683E+02  0.19215085683E+02  0.00000000000E+00 0.  1.
          4    1    1    2  501    0 -0.18266892364E+01 -0.21633280589E+02  0.30572618024E+02  0.37496941148E+02  0.00000000000E+00 0.  1.
         -4    1    1    2    0  502  0.18266892364E+01  0.21633280589E+02 -0.82727950515E+01  0.23233053191E+02  0.00000000000E+00 0. -1.
<mgrwt>
<rscale>  2 0.21710265E+02</rscale>
<asrwt>0</asrwt>
<pdfrwt beam="1">  1       21 0.63869090E-02 0.21710265E+02</pdfrwt>
<pdfrwt beam="2">  1       21 0.29561670E-02 0.21710265E+02</pdfrwt>
<totfact> 0.77967207E+07</totfact>
</mgrwt>
</event>
<event>
 4    1  0.7499963E+004  0.2406067E+02  0.7546771E-02  0.1674872E+00
         21   -1    0    0  501  502  0.00000000000E+00  0.00000000000E+00  0.71366759242E+01  0.71366759242E+01  0.00000000000E+00 0. -1.
         21   -1    0    0  502  503 -0.00000000000E+00 -0.00000000000E+00 -0.82302533596E+02  0.82302533596E+02  0.00000000000E+00 0. -1.
          1    1    1    2  501    0 -0.24016053050E+02  0.14645988722E+01 -0.42946926485E+02  0.49227577113E+02  0.00000000000E+00 0.  1.
         -1    1    1    2    0  503  0.24016053050E+02 -0.14645988722E+01 -0.32218931187E+02  0.40211632407E+02  0.00000000000E+00 0. -1.
<mgrwt>
<rscale>  2 0.24060670E+02</rscale>
<asrwt>0</asrwt>
<pdfrwt beam="1">  1       21 0.10979501E-02 0.24060670E+02</pdfrwt>
<pdfrwt beam="2">  1       21 0.12661928E-01 0.24060670E+02</pdfrwt>
<totfact> 0.11854769E+08</totfact>
</mgrwt>
</event>
<event>
 4    1  0.7499963E+004  0.3029019E+02  0.7546771E-02  0.1594903E+00
         21   -1    0    0  501  502  0.00000000000E+00  0.00000000000E+00  0.81885198642E+00  0.81885198642E+00  0.00000000000E+00 0. -1.
         21   -1    0    0  502  503 -0.00000000000E+00 -0.00000000000E+00 -0.20145476034E+04  0.20145476034E+04  0.00000000000E+00 0. -1.
          5    1    1    2  501    0  0.21078141012E+02 -0.21753337378E+02 -0.33555321053E+03  0.33691757570E+03  0.00000000000E+00 0. -1.
         -5    1    1    2    0  503 -0.21078141012E+02  0.21753337378E+02 -0.16781755409E+04  0.16784488797E+04  0.00000000000E+00 0.  1.
<mgrwt>
<rscale>  2 0.30290192E+02</rscale>
<asrwt>0</asrwt>
<pdfrwt beam="1">  1       21 0.12597914E-03 0.30290192E+02</pdfrwt>
<pdfrwt beam="2">  1       21 0.30992570E+00 0.30290192E+02</pdfrwt>
<totfact> 0.31089784E+06</totfact>
</mgrwt>
</event>
<event>
 4    1  0.7499963E+004  0.2442899E+02  0.7546771E-02  0.1669342E+00
         21   -1    0    0  503  502  0.00000000000E+00  0.00000000000E+00  0.34222882174E+03  0.34222882174E+03  0.00000000000E+00 0.  1.
         21   -1    0    0  501  503 -0.00000000000E+00 -0.00000000000E+00 -0.18666281149E+01  0.18666281149E+01  0.00000000000E+00 0.  1.
          3    1    1    2  501    0 -0.18243916284E+02  0.16246076291E+02  0.21431630324E+03  0.21570408738E+03  0.00000000000E+00 0.  1.
         -3    1    1    2    0  502  0.18243916284E+02 -0.16246076291E+02  0.12604589038E+03  0.12839136248E+03  0.00000000000E+00 0. -1.
<mgrwt>
<rscale>  2 0.24428988E+02</rscale>
<asrwt>0</asrwt>
<pdfrwt beam="1">  1       21 0.52650538E-01 0.24428988E+02</pdfrwt>
<pdfrwt beam="2">  1       21 0.28717383E-03 0.24428988E+02</pdfrwt>
<totfact> 0.66497133E+07</totfact>
</mgrwt>
</event>
<event>
 4    1  0.7499963E+004  0.3019644E+02  0.7546771E-02  0.1595927E+00
         21   -1    0    0  501  502  0.00000000000E+00  0.00000000000E+00  0.87065222609E+02  0.87065222609E+02  0.00000000000E+00 0. -1.
         21   -1    0    0  502  503 -0.00000000000E+00 -0.00000000000E+00 -0.10541516258E+02  0.10541516258E+02  0.00000000000E+00 0. -1.
          1    1    1    2  501    0 -0.23232936191E+02 -0.19288743081E+02  0.42199417246E+02  0.51890420596E+02  0.00000000000E+00 0. -1.
         -1    1    1    2    0  503  0.23232936191E+02  0.19288743081E+02  0.34324289105E+02  0.45716318271E+02  0.00000000000E+00 0.  1.
<mgrwt>
<rscale>  2 0.30196439E+02</rscale>
<asrwt>0</asrwt>
<pdfrwt beam="1">  1       21 0.13394649E-01 0.30196439E+02</pdfrwt>
<pdfrwt beam="2">  1       21 0.16217718E-02 0.30196439E+02</pdfrwt>
<totfact> 0.62988739E+07</totfact>
</mgrwt>
</event>
<event>
 4    1  0.7499963E+004  0.2435733E+02  0.7546771E-02  0.1670408E+00
         21   -1    0    0  501  502  0.00000000000E+00  0.00000000000E+00  0.78728417264E+03  0.78728417264E+03  0.00000000000E+00 0.  1.
         21   -1    0    0  502  503 -0.00000000000E+00 -0.00000000000E+00 -0.77022982542E+00  0.77022982542E+00  0.00000000000E+00 0.  1.
          3    1    1    2  501    0  0.73185032234E+01 -0.23231852489E+02  0.33531991190E+03  0.33620339496E+03  0.00000000000E+00 0. -1.
         -3    1    1    2    0  503 -0.73185032234E+01  0.23231852489E+02  0.45119403091E+03  0.45185100751E+03  0.00000000000E+00 0.  1.
<mgrwt>
<rscale>  2 0.24357329E+02</rscale>
<asrwt>0</asrwt>
<pdfrwt beam="1">  1       21 0.12112000E+00 0.24357329E+02</pdfrwt>
<pdfrwt beam="2">  1       21 0.11849753E-03 0.24357329E+02</pdfrwt>
<totfact> 0.41192098E+07</totfact>
</mgrwt>
</event>
<event>
 4    1  0.7499963E+004  0.2195925E+02  0.7546771E-02  0.1708958E+00
         21   -1    0    0  503  502  0.00000000000E+00  0.00000000000E+00  0.41120474615E+02  0.41120474615E+02  0.00000000000E+00 0.  1.
         21   -1    0    0  501  503 -0.00000000000E+00 -0.00000000000E+00 -0.13997243374E+02  0.13997243374E+02  0.00000000000E+00 0.  1.
          3    1    1    2  501    0 -0.21659927246E+02  0.36133177611E+01  0.24621403154E+01  0.22096847025E+02  0.00000000000E+00 0. -1.
         -3    1    1    2    0  502  0.21659927246E+02 -0.36133177611E+01  0.24661090925E+02  0.33020870963E+02  0.00000000000E+00 0.  1.
<mgrwt>
<rscale>  2 0.21959247E+02</rscale>
<asrwt>0</asrwt>
<pdfrwt beam="1">  1       21 0.63262268E-02 0.21959247E+02</pdfrwt>
<pdfrwt beam="2">  1       21 0.21534221E-02 0.21959247E+02</pdfrwt>
<totfact> 0.12956167E+08</totfact>
</mgrwt>
</event>
<event>
 4    1  0.7499963E+004  0.2490399E+02  0.7546771E-02  0.1662385E+00
         21   -1    0    0  503  502  0.00000000000E+00  0.00000000000E+00  0.18151597417E+02  0.18151597417E+02  0.00000000000E+00 0. -1.
         21   -1    0    0  501  503 -0.00000000000E+00 -0.00000000000E+00 -0.37774145694E+02  0.37774145694E+02  0.00000000000E+00 0. -1.
          3    1    1    2  501    0  0.44012579991E+01 -0.24511989244E+02 -0.11717505656E+01  0.24931540026E+02  0.00000000000E+00 0. -1.
         -3    1    1    2    0  502 -0.44012579991E+01  0.24511989244E+02 -0.18450797712E+02  0.30994203085E+02  0.00000000000E+00 0.  1.
<mgrwt>
<rscale>  2 0.24903989E+02</rscale>
<asrwt>0</asrwt>
<pdfrwt beam="1">  1       21 0.27925535E-02 0.24903989E+02</pdfrwt>
<pdfrwt beam="2">  1       21 0.58114069E-02 0.24903989E+02</pdfrwt>
<totfact> 0.10305166E+08</totfact>
</mgrwt>
</event>
<event>
 4    1  0.7499963E+004  0.3355394E+02  0.7546771E-02  0.1561830E+00
         21   -1    0    0  503  502  0.00000000000E+00  0.00000000000E+00  0.20116276400E+03  0.20116276400E+03  0.00000000000E+00 0.  1.
         21   -1    0    0  501  503 -0.00000000000E+00 -0.00000000000E+00 -0.11817179848E+02  0.11817179848E+02  0.00000000000E+00 0.  1.
          4    1    1    2  501    0  0.31092953861E+02  0.12613303862E+02  0.17411789917E+02  0.37802614225E+02  0.00000000000E+00 0.  1.
         -4    1    1    2    0  502 -0.31092953861E+02 -0.12613303862E+02  0.17193379423E+03  0.17517732962E+03  0.00000000000E+00 0. -1.
<mgrwt>
<rscale>  2 0.33553945E+02</rscale>
<asrwt>0</asrwt>
<pdfrwt beam="1">  1       21 0.30948115E-01 0.33553945E+02</pdfrwt>
<pdfrwt beam="2">  1       21 0.18180278E-02 0.33553945E+02</pdfrwt>
<totfact> 0.12191632E+07</totfact>
</mgrwt>
</event>
<event>
 4    1  0.7499963E+004  0.2477775E+02  0.7546771E-02  0.1664215E+00
         21   -1    0    0  503  502  0.00000000000E+00  0.00000000000E+00  0.86209837262E+00  0.86209837262E+00  0.00000000000E+00 0. -1.
         21   -1    0    0  501  503 -0.00000000000E+00 -0.00000000000E+00 -0.71273119487E+03  0.71273119487E+03  0.00000000000E+00 0. -1.
          2    1    1    2  501    0 -0.24537016303E+02 -0.34455147894E+01 -0.36619028323E+03  0.36702760151E+03  0.00000000000E+00 0.  1.
         -2    1    1    2    0  502  0.24537016303E+02  0.34455147894E+01 -0.34567881327E+03  0.34656569173E+03  0.00000000000E+00 0. -1.
<mgrwt>
<rscale>  2 0.24777747E+02</rscale>
<asrwt>0</asrwt>
<pdfrwt beam="1">  1       21 0.13263014E-03 0.24777747E+02</pdfrwt>
<pdfrwt beam="2">  1       21 0.10965126E+00 0.24777747E+02</pdfrwt>
<totfact> 0.44002804E+07</totfact>
</mgrwt>
</event>
<event>
 4    1  0.7499963E+004  0.2057150E+02  0.7546771E-02  0.1734196E+00
         21   -1    0    0  501  502  0.00000000000E+00  0.00000000000E+00  0.60244512046E+02  0.60244512046E+02  0.00000000000E+00 0.  1.
         21   -1    0    0  502  503 -0.00000000000E+00 -0.00000000000E+00 -0.70247389071E+01  0.70247389071E+01  0.00000000000E+00 0.  1.
          2    1    1    2  501    0 -0.13025267044E+02 -0.15922594886E+02  0.26407266155E+02  0.33474323224E+02  0.00000000000E+00 0. -1.
         -2    1    1    2    0  503  0.13025267044E+02  0.15922594886E+02  0.26812506984E+02  0.33794927730E+02  0.00000000000E+00 0.  1.
<mgrwt>
<rscale>  2 0.20571500E+02</rscale>
<asrwt>0</asrwt>
<pdfrwt beam="1">  1       21 0.92683861E-02 0.20571500E+02</pdfrwt>
<pdfrwt beam="2">  1       21 0.10807291E-02 0.20571500E+02</pdfrwt>
<totfact> 0.19441302E+08</totfact>
</mgrwt>
</event>
<event>
 4    1  0.7499963E+004  0.3260741E+02  0.7546771E-02  0.1570935E+00
         21   -1    0    0  501  502  0.00000000000E+00  0.00000000000E+00  0.20829132318E+02  0.20829132318E+02  0.00000000000E+00 0.  1.
         21   -1    0    0  502  503 -0.00000000000E+00 -0.00000000000E+00 -0.51121924528E+02  0.51121924528E+02  0.00000000000E+00 0.  1.
          3    1    1    2  501    0  0.56835004130E+01 -0.32108274067E+02 -0.13759780399E+02  0.35391736283E+02  0.00000000000E+00 0.  1.
         -3    1    1    2    0  503 -0.56835004130E+01  0.32108274067E+02 -0.16533011811E+02  0.36559320563E+02  0.00000000000E+00 0. -1.
<mgrwt>
<rscale>  2 0.32607414E+02</rscale>
<asrwt>0</asrwt>
<pdfrwt beam="1">  1       21 0.32044819E-02 0.32607414E+02</pdfrwt>
<pdfrwt beam="2">  1       21 0.78649113E-02 0.32607414E+02</pdfrwt>
<totfact> 0.54135312E+07</totfact>
</mgrwt>
</event>
<event>
 4    1  0.7499963E+004  0.3091528E+02  0.7546771E-02  0.1588186E+00
         21   -1    0    0  501  502  0.00000000000E+00  0.00000000000E+00  0.11029488924E+03  0.11029488924E+03  0.00000000000E+00 0. -1.
         21   -1    0    0  502  503 -0.00000000000E+00 -0.00000000000E+00 -0.86793913430E+01  0.86793913430E+01  0.00000000000E+00 0. -1.
          4    1    1    2  501    0  0.30795272131E+02  0.27213797244E+01  0.53192003481E+02  0.61523523367E+02  0.00000000000E+00 0. -1.
         -4    1    1    2    0  503 -0.30795272131E+02 -0.27213797244E+01  0.48423494420E+02  0.57450757219E+02  0.00000000000E+00 0.  1.
<mgrwt>
<rscale>  2 0.30915283E+02</rscale>
<asrwt>0</asrwt>
<pdfrwt beam="1">  1       21 0.16968443E-01 0.30915283E+02</pdfrwt>
<pdfrwt beam="2">  1       21 0.13352911E-02 0.30915283E+02</pdfrwt>
<totfact> 0.56755072E+07</totfact>
</mgrwt>
</event>
<event>
 4    1  0.7499963E+004  0.2345376E+02  0.7546771E-02  0.1684259E+00
         21   -1    0    0  501  502  0.00000000000E+00  0.00000000000E+00  0.10462696794E+02  0.10462696794E+02  0.00000000000E+00 0. -1.
         21   -1    0    0  502  503 -0.00000000000E+00 -0.00000000000E+00 -0.53143259738E+02  0.53143259738E+02  0.00000000000E+00 0. -1.
          1    1    1    2  501    0 -0.22023162090E+02  0.80659206320E+01 -0.24628247116E+02  0.34009253154E+02  0.00000000000E+00 0.  1.
         -1    1    1    2    0  503  0.22023162090E+02 -0.80659206320E+01 -0.18052315829E+02  0.29596703378E+02  0.00000000000E+00 0. -1.
<mgrwt>
<rscale>  2 0.23453758E+02</rscale>
<asrwt>0</asrwt>
<pdfrwt beam="1">  1       21 0.16096457E-02 0.23453758E+02</pdfrwt>
<pdfrwt beam="2">  1       21 0.81758861E-02 0.23453758E+02</pdfrwt>
<totfact> 0.13608809E+08</totfact>
</mgrwt>
</event>
<event>
 4    1  0.7499963E+004  0.2267183E+02  0.7546771E-02  0.1696886E+00
         21   -1    0    0  503  502  0.00000000000E+00  0.00000000000E+00  0.10549685636E+02  0.10549685636E+02  0.00000000000E+00 0. -1.
         21   -1    0    0  501  503 -0.00000000000E+00 -0.00000000000E+00 -0.50502647334E+02  0.50502647334E+02  0.00000000000E+00 0. -1.
          4    1    1    2  501    0 -0.49955633729E+01  0.22114616961E+02 -0.14246056860E+02  0.26776147460E+02  0.00000000000E+00 0.  1.
         -4    1    1    2    0  502  0.49955633729E+01 -0.22114616961E+02 -0.25706904838E+02  0.34276185510E+02  0.00000000000E+00 0. -1.
<mgrwt>
<rscale>  2 0.22671831E+02</rscale>
<asrwt>0</asrwt>
<pdfrwt beam="1">  1       21 0.16230285E-02 0.22671831E+02</pdfrwt>
<pdfrwt beam="2">  1       21 0.77696383E-02 0.22671831E+02</pdfrwt>
<totfact> 0.14455978E+08</totfact>
</mgrwt>
</event>
<event>
 4    1  0.7499963E+004  0.2144286E+02  0.7546771E-02  0.1718069E+00
         21   -1    0    0  501  502  0.00000000000E+00  0.00000000000E+00  0.23447252368E+03  0.23447252368E+03  0.00000000000E+00 0. -1.
         21   -1    0    0  502  503 -0.00000000000E+00 -0.00000000000E+00 -0.21474539692E+01  0.21474539692E+01  0.00000000000E+00 0. -1.
          4    1    1    2  501    0 -0.84827343795E+01  0.19693641620E+02  0.81299375983E+02  0.84079633907E+02  0.00000000000E+00 0. -1.
         -4    1    1    2    0  503  0.84827343795E+01 -0.19693641620E+02  0.15102569372E+03  0.15254034374E+03  0.00000000000E+00 0.  1.
<mgrwt>
<rscale>  2 0.21442861E+02</rscale>
<asrwt>0</asrwt>
<pdfrwt beam="1">  1       21 0.36072676E-01 0.21442861E+02</pdfrwt>
<pdfrwt beam="2">  1       21 0.33037772E-03 0.21442861E+02</pdfrwt>
<totfact> 0.10780942E+08</totfact>
</mgrwt>
</event>
<event>
 4    1  0.7499963E+004  0.2837415E+02  0.7546771E-02  0.1616788E+00
         21   -1    0    0  501  502  0.00000000000E+00  0.00000000000E+00  0.69648080441E+01  0.69648080441E+01  0.00000000000E+00 0. -1.
         21   -1    0    0  502  503 -0.00000000000E+00 -0.00000000000E+00 -0.13007069540E+03  0.13007069540E+03  0.00000000000E+00 0. -1.
          5    1    1    2  501    0  0.25445415137E+02  0.12554801932E+02 -0.84411215453E+02  0.89052487317E+02  0.00000000000E+00 0. -1.
         -5    1    1    2    0  503 -0.25445415137E+02 -0.12554801932E+02 -0.38694671904E+02  0.47983016128E+02  0.00000000000E+00 0.  1.
<mgrwt>
<rscale>  2 0.28374147E+02</rscale>
<asrwt>0</asrwt>
<pdfrwt beam="1">  1       21 0.10715090E-02 0.28374147E+02</pdfrwt>
<pdfrwt beam="2">  1       21 0.20010875E-01 0.28374147E+02</pdfrwt>
<totfact> 0.58336154E+07</totfact>
</mgrwt>
</event>
<event>
 4    1  0.7499963E+004  0.2083502E+02  0.7546771E-02  0.1729215E+00
         21   -1    0    0  503  502  0.00000000000E+00  0.00000000000E+00  0.78407599222E+00  0.78407599222E+00  0.00000000000E+00 0. -1.
         21   -1    0    0  501  503 -0.00000000000E+00 -0.00000000000E+00 -0.60933618331E+03  0.60933618331E+03  0.00000000000E+00 0. -1.
          4    1    1    2  501    0 -0.57798799257E+01 -0.20017265301E+02 -0.39650331079E+03  0.39705034113E+03  0.00000000000E+00 0.  1.
         -4    1    1    2    0  502  0.57798799257E+01  0.20017265301E+02 -0.21204879652E+03  0.21306991817E+03  0.00000000000E+00 0. -1.
<mgrwt>
<rscale>  2 0.20835017E+02</rscale>
<asrwt>0</asrwt>
<pdfrwt beam="1">  1       21 0.12062718E-03 0.20835017E+02</pdfrwt>
<pdfrwt beam="2">  1       21 0.93743950E-01 0.20835017E+02</pdfrwt>
<totfact> 0.68376748E+07</totfact>
</mgrwt>
</event>
<event>
 4    1  0.7499963E+004  0.2213135E+02  0.7546771E-02  0.1705990E+00
         21   -1    0    0  501  502  0.00000000000E+00  0.00000000000E+00  0.89028894828E+01  0.89028894828E+01  0.00000000000E+00 0. -1.
         21   -1    0    0  502  503 -0.00000000000E+00 -0.00000000000E+00 -0.71607340727E+02  0.71607340727E+02  0.00000000000E+00 0. -1.
          3    1    1    2  501    0 -0.16997079525E+02 -0.14173768717E+02 -0.11975057963E+02  0.25163434687E+02  0.00000000000E+00 0.  1.
         -3    1    1    2    0  503  0.16997079525E+02  0.14173768717E+02 -0.50729393281E+02  0.55346795523E+02  0.00000000000E+00 0. -1.
<mgrwt>
<rscale>  2 0.22131345E+02</rscale>
<asrwt>0</asrwt>
<pdfrwt beam="1">  1       21 0.13696753E-02 0.22131345E+02</pdfrwt>
<pdfrwt beam="2">  1       21 0.11016514E-01 0.22131345E+02</pdfrwt>
<totfact> 0.10459340E+08</totfact>
</mgrwt>
</event>
<event>
 4    1  0.7499963E+004  0.2114631E+02  0.7546771E-02  0.1723448E+00
         21   -1    0    0  501  502  0.00000000000E+00  0.00000000000E+00  0.14759928909E+02  0.14759928909E+02  0.00000000000E+00 0.  1.
         21   -1    0    0  502  503 -0.00000000000E+00 -0.00000000000E+00 -0.31114905996E+02  0.31114905996E+02  0.00000000000E+00 0.  1.
          1    1    1    2  501    0  0.20744198656E+02 -0.41042162737E+01 -0.44562702266E+01  0.21610754578E+02  0.00000000000E+00 0. -1.
         -1    1    1    2    0  503 -0.20744198656E+02  0.41042162737E+01 -0.11898706860E+02  0.24264080326E+02  0.00000000000E+00 0.  1.
<mgrwt>
<rscale>  2 0.21146309E+02</rscale>
<asrwt>0</asrwt>
<pdfrwt beam="1">  1       21 0.22707583E-02 0.21146309E+02</pdfrwt>
<pdfrwt beam="2">  1       21 0.47869085E-02 0.21146309E+02</pdfrwt>
<totfact> 0.18415606E+08</totfact>
</mgrwt>
</event>
<event>
 4    1  0.7499963E+004  0.2091562E+02  0.7546771E-02  0.1727710E+00
         21   -1    0    0  501  502  0.00000000000E+00  0.00000000000E+00  0.24646785558E+03  0.24646785558E+03  0.00000000000E+00 0. -1.
         21   -1    0    0  502  503 -0.00000000000E+00 -0.00000000000E+00 -0.23119736505E+01  0.23119736505E+01  0.00000000000E+00 0. -1.
          2    1    1    2  501    0  0.62094782348E+01 -0.19972615527E+02  0.62126607019E+02  0.65552866380E+02  0.00000000000E+00 0.  1.
         -2    1    1    2    0  503 -0.62094782348E+01  0.19972615527E+02  0.18202927491E+03  0.18322696285E+03  0.00000000000E+00 0. -1.
<mgrwt>
<rscale>  2 0.20915616E+02</rscale>
<asrwt>0</asrwt>
<pdfrwt beam="1">  1       21 0.37918111E-01 0.20915616E+02</pdfrwt>
<pdfrwt beam="2">  1       21 0.35568845E-03 0.20915616E+02</pdfrwt>
<totfact> 0.87645614E+07</totfact>
</mgrwt>
</event>
<event>
 4    1  0.7499963E+004  0.3168376E+02  0.7546771E-02  0.1580189E+00
         21   -1    0    0  503  502  0.00000000000E+00  0.00000000000E+00  0.28890295022E+03  0.28890295022E+03  0.00000000000E+00 0.  1.
         21   -1    0    0  501  503 -0.00000000000E+00 -0.00000000000E+00 -0.34816767295E+01  0.34816767295E+01  0.00000000000E+00 0.  1.
          1    1    1    2  501    0  0.30382734025E+02 -0.89860947574E+01  0.14923964449E+03  0.15256582813E+03  0.00000000000E+00 0. -1.
         -1    1    1    2    0  502 -0.30382734025E+02  0.89860947574E+01  0.13618162900E+03  0.13981879882E+03  0.00000000000E+00 0.  1.
<mgrwt>
<rscale>  2 0.31683756E+02</rscale>
<asrwt>0</asrwt>
<pdfrwt beam="1">  1       21 0.44446589E-01 0.31683756E+02</pdfrwt>
<pdfrwt beam="2">  1       21 0.53564280E-03 0.31683756E+02</pdfrwt>
<totfact> 0.38963514E+07</totfact>
</mgrwt>
</event>
<event>
 4    1  0.7499963E+004  0.2120050E+02  0.7546771E-02  0.1722457E+00
         21   -1    0    0  503  502  0.00000000000E+00  0.00000000000E+00  0.20601676402E+02  0.20601676402E+02  0.00000000000E+00 0. -1.
         21   -1    0    0  501  503 -0.00000000000E+00 -0.00000000000E+00 -0.22237028561E+02  0.22237028561E+02  0.00000000000E+00 0. -1.
          1    1    1    2  501    0  0.20706573941E+02  0.45495940141E+01  0.21270978972E+01  0.21306936794E+02  0.00000000000E+00 0.  1.
         -1    1    1    2    0  502 -0.20706573941E+02 -0.45495940141E+01 -0.37624500557E+01  0.21531768169E+02  0.00000000000E+00 0. -1.
<mgrwt>
<rscale>  2 0.21200496E+02</rscale>
<asrwt>0</asrwt>
<pdfrwt beam="1">  1       21 0.31694887E-02 0.21200496E+02</pdfrwt>
<pdfrwt beam="2">  1       21 0.34210813E-02 0.21200496E+02</pdfrwt>
<totfact> 0.18662638E+08</totfact>
</mgrwt>
</event>
<event>
 4    1  0.7499963E+004  0.2719714E+02  0.7546771E-02  0.1631312E+00
         21   -1    0    0  501  502  0.00000000000E+00  0.00000000000E+00  0.42494345628E+02  0.42494345628E+02  0.00000000000E+00 0.  1.
         21   -1    0    0  502  503 -0.00000000000E+00 -0.00000000000E+00 -0.20416423697E+02  0.20416423697E+02  0.00000000000E+00 0.  1.
          3    1    1    2  501    0 -0.52710936906E+01  0.26681451940E+02  0.23116318090E+02  0.35693815547E+02  0.00000000000E+00 0. -1.
         -3    1    1    2    0  503  0.52710936906E+01 -0.26681451940E+02 -0.10383961590E+01  0.27216953777E+02  0.00000000000E+00 0.  1.
<mgrwt>
<rscale>  2 0.27197138E+02</rscale>
<asrwt>0</asrwt>
<pdfrwt beam="1">  1       21 0.65375916E-02 0.27197138E+02</pdfrwt>
<pdfrwt beam="2">  1       21 0.31409883E-02 0.27197138E+02</pdfrwt>
<totfact> 0.72514607E+07</totfact>
</mgrwt>
</event>
<event>
 4    1  0.7499963E+004  0.3112671E+02  0.7546771E-02  0.1585958E+00
         21   -1    0    0  501  502  0.00000000000E+00  0.00000000000E+00  0.50867133951E+02  0.50867133951E+02  0.00000000000E+00 0. -1.
         21   -1    0    0  502  503 -0.00000000000E+00 -0.00000000000E+00 -0.19620903371E+02  0.19620903371E+02  0.00000000000E+00 0. -1.
          3    1    1    2  501    0  0.72587029119E+01  0.30268519290E+02  0.21650136258E+02  0.37915701602E+02  0.00000000000E+00 0. -1.
         -3    1    1    2    0  503 -0.72587029119E+01 -0.30268519290E+02  0.95960943228E+01  0.32572335720E+02  0.00000000000E+00 0.  1.
<mgrwt>
<rscale>  2 0.31126709E+02</rscale>
<asrwt>0</asrwt>
<pdfrwt beam="1">  1       21 0.78257129E-02 0.31126709E+02</pdfrwt>
<pdfrwt beam="2">  1       21 0.30186005E-02 0.31126709E+02</pdfrwt>
<totfact> 0.59376694E+07</totfact>
</mgrwt>
</event>
<event>
 4    1  0.7499963E+004  0.2349226E+02  0.7546771E-02  0.1683653E+00
         21   -1    0    0  503  502  0.00000000000E+00  0.00000000000E+00  0.47427097127E+01  0.47427097127E+01  0.00000000000E+00 0.  1.
         21   -1    0    0  501  503 -0.00000000000E+00 -0.00000000000E+00 -0.12042049648E+03  0.12042049648E+03  0.00000000000E+00 0.  1.
          2    1    1    2  501    0 -0.16231996808E+02  0.16982589318E+02 -0.69323370166E+02  0.73195735610E+02  0.00000000000E+00 0.  1.
         -2    1    1    2    0  502  0.16231996808E+02 -0.16982589318E+02 -0.46354416599E+02  0.51967470580E+02  0.00000000000E+00 0. -1.
<mgrwt>
<rscale>  2 0.23492255E+02</rscale>
<asrwt>0</asrwt>
<pdfrwt beam="1">  1       21 0.72964770E-03 0.23492255E+02</pdfrwt>
<pdfrwt beam="2">  1       21 0.18526229E-01 0.23492255E+02</pdfrwt>
<totfact> 0.11340848E+08</totfact>
</mgrwt>
</event>
<event>
 4    1  0.7499963E+004  0.2148955E+02  0.7546771E-02  0.1717232E+00
         21   -1    0    0  501  502  0.00000000000E+00  0.00000000000E+00  0.12654654281E+02  0.12654654281E+02  0.00000000000E+00 0.  1.
         21   -1    0    0  502  503 -0.00000000000E+00 -0.00000000000E+00 -0.36508629303E+02  0.36508629303E+02  0.00000000000E+00 0.  1.
          1    1    1    2  501    0 -0.17407327615E+02 -0.12601017757E+02 -0.12442739506E+02  0.24831884134E+02  0.00000000000E+00 0. -1.
         -1    1    1    2    0  503  0.17407327615E+02  0.12601017757E+02 -0.11411235516E+02  0.24331399451E+02  0.00000000000E+00 0.  1.
<mgrwt>
<rscale>  2 0.21489549E+02</rscale>
<asrwt>0</asrwt>
<pdfrwt beam="1">  1       21 0.19468699E-02 0.21489549E+02</pdfrwt>
<pdfrwt beam="2">  1       21 0.56167121E-02 0.21489549E+02</pdfrwt>
<totfact> 0.18174129E+08</totfact>
</mgrwt>
</event>
<event>
 4    1  0.7499963E+004  0.2387259E+02  0.7546771E-02  0.1677744E+00
         21   -1    0    0  501  502  0.00000000000E+00  0.00000000000E+00  0.57511376085E+01  0.57511376085E+01  0.00000000000E+00 0. -1.
         21   -1    0    0  502  503 -0.00000000000E+00 -0.00000000000E+00 -0.10920936039E+03  0.10920936039E+03  0.00000000000E+00 0. -1.
          3    1    1    2  501    0 -0.35613997330E+01 -0.23605448758E+02 -0.69223087855E+02  0.73223880471E+02  0.00000000000E+00 0.  1.
         -3    1    1    2    0  503  0.35613997330E+01  0.23605448758E+02 -0.34235134924E+02  0.41736617524E+02  0.00000000000E+00 0. -1.
<mgrwt>
<rscale>  2 0.23872595E+02</rscale>
<asrwt>0</asrwt>
<pdfrwt beam="1">  1       21 0.88479044E-03 0.23872595E+02</pdfrwt>
<pdfrwt beam="2">  1       21 0.16801439E-01 0.23872595E+02</pdfrwt>
<totfact> 0.10110550E+08</totfact>
</mgrwt>
</event>
<event>
 4    1  0.7499963E+004  0.2255045E+02  0.7546771E-02  0.1698902E+00
         21   -1    0    0  501  502  0.00000000000E+00  0.00000000000E+00  0.27122267562E+02  0.27122267562E+02  0.00000000000E+00 0.  1.
         21   -1    0    0  502  503 -0.00000000000E+00 -0.00000000000E+00 -0.19845214964E+02  0.19845214964E+02  0.00000000000E+00 0.  1.
          1    1    1    2  501    0 -0.22018062623E+02  0.48711223097E+01 -0.18801169318E+01  0.22628693155E+02  0.00000000000E+00 0. -1.
         -1    1    1    2    0  503  0.22018062623E+02 -0.48711223097E+01  0.91571695297E+01  0.24338789371E+02  0.00000000000E+00 0.  1.
<mgrwt>
<rscale>  2 0.22550453E+02</rscale>
<asrwt>0</asrwt>
<pdfrwt beam="1">  1       21 0.41726566E-02 0.22550453E+02</pdfrwt>
<pdfrwt beam="2">  1       21 0.30531100E-02 0.22550453E+02</pdfrwt>
<totfact> 0.14767602E+08</totfact>
</mgrwt>
</event>
<event>
 4    1  0.7499963E+004  0.2971413E+02  0.7546771E-02  0.1601270E+00
         21   -1    0    0  501  502  0.00000000000E+00  0.00000000000E+00  0.32086297386E+00  0.32086297386E+00  0.00000000000E+00 0.  1.
         21   -1    0    0  502  503 -0.00000000000E+00 -0.00000000000E+00 -0.29212039122E+04  0.29212039122E+04  0.00000000000E+00 0.  1.
          4    1    1    2  501    0 -0.22617707521E+02 -0.19270936215E+02 -0.11086021357E+04  0.11090002818E+04  0.00000000000E+00 0. -1.
         -4    1    1    2    0  503  0.22617707521E+02  0.19270936215E+02 -0.18122809135E+04  0.18125244934E+04  0.00000000000E+00 0.  1.
<mgrwt>
<rscale>  2 0.29714133E+02</rscale>
<asrwt>0</asrwt>
<pdfrwt beam="1">  1       21 0.49363864E-04 0.29714133E+02</pdfrwt>
<pdfrwt beam="2">  1       21 0.44941299E+00 0.29714133E+02</pdfrwt>
<totfact> 0.20798224E+06</totfact>
</mgrwt>
</event>
<event>
 4    1  0.7499963E+004  0.2028630E+02  0.7546771E-02  0.1739694E+00
         21   -1    0    0  501  502  0.00000000000E+00  0.00000000000E+00  0.30364358735E+01  0.30364358735E+01  0.00000000000E+00 0.  1.
         21   -1    0    0  502  503 -0.00000000000E+00 -0.00000000000E+00 -0.15131084929E+03  0.15131084929E+03  0.00000000000E+00 0.  1.
          4    1    1    2  501    0 -0.15937381488E+02 -0.12551254612E+02 -0.49215825501E+02  0.53232805682E+02  0.00000000000E+00 0.  1.
         -4    1    1    2    0  503  0.15937381488E+02  0.12551254612E+02 -0.99058587916E+02  0.10111447948E+03  0.00000000000E+00 0. -1.
<mgrwt>
<rscale>  2 0.20286304E+02</rscale>
<asrwt>0</asrwt>
<pdfrwt beam="1">  1       21 0.46714385E-03 0.20286304E+02</pdfrwt>
<pdfrwt beam="2">  1       21 0.23278599E-01 0.20286304E+02</pdfrwt>
<totfact> 0.14101423E+08</totfact>
</mgrwt>
</event>
<event>
 4    1  0.7499963E+004  0.5293592E+02  0.7546771E-02  0.1430120E+00
         21   -1    0    0  501  502  0.00000000000E+00  0.00000000000E+00  0.23108121404E+02  0.23108121404E+02  0.00000000000E+00 0. -1.
         21   -1    0    0  502  503 -0.00000000000E+00 -0.00000000000E+00 -0.14375982790E+03  0.14375982790E+03  0.00000000000E+00 0. -1.
          5    1    1    2  501    0  0.40532713420E+01 -0.52780516724E+02 -0.93329593012E+02  0.10729690064E+03  0.00000000000E+00 0.  1.
         -5    1    1    2    0  503 -0.40532713420E+01  0.52780516724E+02 -0.27322113485E+02  0.59571048670E+02  0.00000000000E+00 0. -1.
<mgrwt>
<rscale>  2 0.52935923E+02</rscale>
<asrwt>0</asrwt>
<pdfrwt beam="1">  1       21 0.35550956E-02 0.52935923E+02</pdfrwt>
<pdfrwt beam="2">  1       21 0.22116897E-01 0.52935923E+02</pdfrwt>
<totfact> 0.83001929E+06</totfact>
</mgrwt>
</event>
<event>
 4    1  0.7499963E+004  0.2306432E+02  0.7546771E-02  0.1690470E+00
         21   -1    0    0  503  502  0.00000000000E+00  0.00000000000E+00  0.91366244785E+02  0.91366244785E+02  0.00000000000E+00 0.  1.
         21   -1    0    0  501  503 -0.00000000000E+00 -0.00000000000E+00 -0.59428249620E+01  0.59428249620E+01  0.00000000000E+00 0.  1.
          4    1    1    2  501    0  0.61407962003E+01 -0.22231809729E+02  0.49640295036E+02  0.54736839816E+02  0.00000000000E+00 0.  1.
         -4    1    1    2    0  502 -0.61407962003E+01  0.22231809729E+02  0.35783124787E+02  0.42572229931E+02  0.00000000000E+00 0. -1.
<mgrwt>
<rscale>  2 0.23064318E+02</rscale>
<asrwt>0</asrwt>
<pdfrwt beam="1">  1       21 0.14056344E-01 0.23064318E+02</pdfrwt>
<pdfrwt beam="2">  1       21 0.91428083E-03 0.23064318E+02</pdfrwt>
<totfact> 0.12926358E+08</totfact>
</mgrwt>
</event>
<event>
 4    1  0.7499963E+004  0.2575716E+02  0.7546771E-02  0.1650359E+00
         21   -1    0    0  503  502  0.00000000000E+00  0.00000000000E+00  0.18259595221E+02  0.18259595221E+02  0.00000000000E+00 0.  1.
         21   -1    0    0  501  503 -0.00000000000E+00 -0.00000000000E+00 -0.38309129546E+02  0.38309129546E+02  0.00000000000E+00 0.  1.
          3    1    1    2  501    0 -0.18386370877E+02 -0.18038082874E+02 -0.16448266645E+02  0.30561029816E+02  0.00000000000E+00 0. -1.
         -3    1    1    2    0  502  0.18386370877E+02  0.18038082874E+02 -0.36012676798E+01  0.26007694951E+02  0.00000000000E+00 0.  1.
<mgrwt>
<rscale>  2 0.25757156E+02</rscale>
<asrwt>0</asrwt>
<pdfrwt beam="1">  1       21 0.28091685E-02 0.25757156E+02</pdfrwt>
<pdfrwt beam="2">  1       21 0.58937122E-02 0.25757156E+02</pdfrwt>
<totfact> 0.10071458E+08</totfact>
</mgrwt>
</event>
<event>
 4    1  0.7499963E+004  0.2163682E+02  0.7546771E-02  0.1714610E+00
         21   -1    0    0  501  502  0.00000000000E+00  0.00000000000E+00  0.59095505850E+01  0.59095505850E+01  0.00000000000E+00 0. -1.
         21   -1    0    0  502  503 -0.00000000000E+00 -0.00000000000E+00 -0.81127531752E+02  0.81127531752E+02  0.00000000000E+00 0. -1.
          1    1    1    2  501    0  0.53889254521E+01 -0.20954986612E+02 -0.44282841024E+02  0.49286123712E+02  0.00000000000E+00 0. -1.
         -1    1    1    2    0  503 -0.53889254521E+01  0.20954986612E+02 -0.30935140143E+02  0.37750958625E+02  0.00000000000E+00 0.  1.
<mgrwt>
<rscale>  2 0.21636820E+02</rscale>
<asrwt>0</asrwt>
<pdfrwt beam="1">  1       21 0.90916162E-03 0.21636820E+02</pdfrwt>
<pdfrwt beam="2">  1       21 0.12481159E-01 0.21636820E+02</pdfrwt>
<totfact> 0.15626027E+08</totfact>
</mgrwt>
</event>
<event>
 4    1  0.7499963E+004  0.2076524E+02  0.7546771E-02  0.1730525E+00
         21   -1    0    0  501  502  0.00000000000E+00  0.00000000000E+00  0.70890180515E+01  0.70890180515E+01  0.00000000000E+00 0. -1.
         21   -1    0    0  502  503 -0.00000000000E+00 -0.00000000000E+00 -0.67054244559E+02  0.67054244559E+02  0.00000000000E+00 0. -1.
          5    1    1    2  501    0 -0.16024250548E+02 -0.13206770412E+02 -0.41281024984E+02  0.46209505668E+02  0.00000000000E+00 0. -1.
         -5    1    1    2    0  503  0.16024250548E+02  0.13206770412E+02 -0.18684201523E+02  0.27933756942E+02  0.00000000000E+00 0.  1.
<mgrwt>
<rscale>  2 0.20765245E+02</rscale>
<asrwt>0</asrwt>
<pdfrwt beam="1">  1       21 0.10906181E-02 0.20765245E+02</pdfrwt>
<pdfrwt beam="2">  1       21 0.10316038E-01 0.20765245E+02</pdfrwt>
<totfact> 0.16128265E+08</totfact>
</mgrwt>
</event>
<event>
 4    1  0.7499963E+004  0.2134603E+02  0.7546771E-02  0.1719814E+00
         21   -1    0    0  501  502  0.00000000000E+00  0.00000000000E+00  0.11092397759E+03  0.11092397759E+03  0.00000000000E+00 0. -1.
         21   -1    0    0  502  503 -0.00000000000E+00 -0.00000000000E+00 -0.41336438912E+01  0.41336438912E+01  0.00000000000E+00 0. -1.
          5    1    1    2  501    0 -0.98399019561E+01  0.18942786536E+02  0.48845814877E+02  0.53306345431E+02  0.00000000000E+00 0.  1.
         -5    1    1    2    0  503  0.98399019561E+01 -0.18942786536E+02  0.57944518817E+02  0.61751276045E+02  0.00000000000E+00 0. -1.
<mgrwt>
<rscale>  2 0.21346026E+02</rscale>
<asrwt>0</asrwt>
<pdfrwt beam="1">  1       21 0.17065225E-01 0.21346026E+02</pdfrwt>
<pdfrwt beam="2">  1       21 0.63594530E-03 0.21346026E+02</pdfrwt>
<totfact> 0.15586429E+08</totfact>
</mgrwt>
</event>
<event>
 4    1  0.7499963E+004  0.2382632E+02  0.7546771E-02  0.1678456E+00
         21   -1    0    0  501  502  0.00000000000E+00  0.00000000000E+00  0.21576565004E+03  0.21576565004E+03  0.00000000000E+00 0. -1.
         21   -1    0    0  502  503 -0.00000000000E+00 -0.00000000000E+00 -0.26497766711E+01  0.26497766711E+01  0.00000000000E+00 0. -1.
          4    1    1    2  501    0  0.38464736438E+01  0.23513784364E+02  0.11573506640E+03  0.11816217250E+03  0.00000000000E+00 0. -1.
         -4    1    1    2    0  503 -0.38464736438E+01 -0.23513784364E+02  0.97380806961E+02  0.10025325421E+03  0.00000000000E+00 0.  1.
<mgrwt>
<rscale>  2 0.23826318E+02</rscale>
<asrwt>0</asrwt>
<pdfrwt beam="1">  1       21 0.33194702E-01 0.23826318E+02</pdfrwt>
<pdfrwt beam="2">  1       21 0.40765812E-03 0.23826318E+02</pdfrwt>
<totfact> 0.95089534E+07</totfact>
</mgrwt>
</event>
<event>
 4    1  0.7499963E+004  0.2226542E+02  0.7546771E-02  0.1703702E+00
         21   -1    0    0  503  502  0.00000000000E+00  0.00000000000E+00  0.33325934387E+02  0.33325934387E+02  0.00000000000E+00 0. -1.
         21   -1    0    0  501  503 -0.00000000000E+00 -0.00000000000E+00 -0.15499080180E+02  0.15499080180E+02  0.00000000000E+00 0. -1.
          1    1    1    2  501    0  0.20605880287E+02  0.84348434304E+01  0.40177581354E+01  0.22625014178E+02  0.00000000000E+00 0.  1.
         -1    1    1    2    0  502 -0.20605880287E+02 -0.84348434304E+01  0.13809096071E+02  0.26200000389E+02  0.00000000000E+00 0. -1.
<mgrwt>
<rscale>  2 0.22265419E+02</rscale>
<asrwt>0</asrwt>
<pdfrwt beam="1">  1       21 0.51270668E-02 0.22265419E+02</pdfrwt>
<pdfrwt beam="2">  1       21 0.23844739E-02 0.22265419E+02</pdfrwt>
<totfact> 0.15566466E+08</totfact>
</mgrwt>
</event>
<event>
 4    1  0.7499963E+004  0.2164376E+02  0.7546771E-02  0.1714487E+00
         21   -1    0    0  503  502  0.00000000000E+00  0.00000000000E+00  0.75646450343E+02  0.75646450343E+02  0.00000000000E+00 0.  1.
         21   -1    0    0  501  503 -0.00000000000E+00 -0.00000000000E+00 -0.62571774962E+01  0.62571774962E+01  0.00000000000E+00 0.  1.
          5    1    1    2  501    0 -0.18056817637E+02 -0.11933309318E+02  0.30536180315E+02  0.37428743536E+02  0.00000000000E+00 0.  1.
         -5    1    1    2    0  502  0.18056817637E+02  0.11933309318E+02  0.38853092533E+02  0.44474884304E+02  0.00000000000E+00 0. -1.
<mgrwt>
<rscale>  2 0.21643764E+02</rscale>
<asrwt>0</asrwt>
<pdfrwt beam="1">  1       21 0.11637915E-01 0.21643764E+02</pdfrwt>
<pdfrwt beam="2">  1       21 0.96264275E-03 0.21643764E+02</pdfrwt>
<totfact> 0.16125326E+08</totfact>
</mgrwt>
</event>
<event>
 4    1  0.7499963E+004  0.2036820E+02  0.7546771E-02  0.1738104E+00
         21   -1    0    0  503  502  0.00000000000E+00  0.00000000000E+00  0.60099157847E+01  0.60099157847E+01  0.00000000000E+00 0. -1.
         21   -1    0    0  501  503 -0.00000000000E+00 -0.00000000000E+00 -0.69535285860E+02  0.69535285860E+02  0.00000000000E+00 0. -1.
          4    1    1    2  501    0  0.58416498984E+01  0.19512527234E+02 -0.28542307718E+02  0.35064610685E+02  0.00000000000E+00 0.  1.
         -4    1    1    2    0  502 -0.58416498984E+01 -0.19512527234E+02 -0.34983062357E+02  0.40480590960E+02  0.00000000000E+00 0. -1.
<mgrwt>
<rscale>  2 0.20368201E+02</rscale>
<asrwt>0</asrwt>
<pdfrwt beam="1">  1       21 0.92460241E-03 0.20368201E+02</pdfrwt>
<pdfrwt beam="2">  1       21 0.10697736E-01 0.20368201E+02</pdfrwt>
<totfact> 0.19328610E+08</totfact>
</mgrwt>
</event>
<event>
 4    1  0.7499963E+004  0.5408661E+02  0.7546771E-02  0.1424468E+00
         21   -1    0    0  501  502  0.00000000000E+00  0.00000000000E+00  0.13949376942E+02  0.13949376942E+02  0.00000000000E+00 0.  1.
         21   -1    0    0  502  503 -0.00000000000E+00 -0.00000000000E+00 -0.43221750995E+03  0.43221750995E+03  0.00000000000E+00 0.  1.
          2    1    1    2  501    0 -0.29181513557E+02  0.45539002570E+02 -0.49072941965E+02  0.73030918943E+02  0.00000000000E+00 0.  1.
         -2    1    1    2    0  503  0.29181513557E+02 -0.45539002570E+02 -0.36919519104E+03  0.37313596794E+03  0.00000000000E+00 0. -1.
<mgrwt>
<rscale>  2 0.54086611E+02</rscale>
<asrwt>0</asrwt>
<pdfrwt beam="1">  1       21 0.21460583E-02 0.54086611E+02</pdfrwt>
<pdfrwt beam="2">  1       21 0.66494992E-01 0.54086611E+02</pdfrwt>
<totfact> 0.21916667E+06</totfact>
</mgrwt>
</event>
<event>
 4    1  0.7499963E+004  0.3648652E+02  0.7546771E-02  0.1535783E+00
         21   -1    0    0  501  502  0.00000000000E+00  0.00000000000E+00  0.48963643734E+01  0.48963643734E+01  0.00000000000E+00 0. -1.
         21   -1    0    0  502  503 -0.00000000000E+00 -0.00000000000E+00 -0.31501189282E+03  0.31501189282E+03  0.00000000000E+00 0. -1.
          5    1    1    2  501    0  0.21842610432E+02  0.29226125571E+02 -0.21423947754E+03  0.21732422732E+03  0.00000000000E+00 0. -1.
         -5    1    1    2    0  503 -0.21842610432E+02 -0.29226125571E+02 -0.95876050913E+02  0.10258402987E+03  0.00000000000E+00 0.  1.
<mgrwt>
<rscale>  2 0.36486519E+02</rscale>
<asrwt>0</asrwt>
<pdfrwt beam="1">  1       21 0.75328675E-03 0.36486519E+02</pdfrwt>
<pdfrwt beam="2">  1       21 0.48463373E-01 0.36486519E+02</pdfrwt>
<totfact> 0.20197685E+07</totfact>
</mgrwt>
</event>
<event>
 4    1  0.7499963E+004  0.3153161E+02  0.7546771E-02  0.1581751E+00
         21   -1    0    0  501  502  0.00000000000E+00  0.00000000000E+00  0.88944471131E+01  0.88944471131E+01  0.00000000000E+00 0. -1.
         21   -1    0    0  502  503 -0.00000000000E+00 -0.00000000000E+00 -0.18260258802E+03  0.18260258802E+03  0.00000000000E+00 0. -1.
          3    1    1    2  501    0 -0.12983153275E+02  0.28734656232E+02 -0.14648301197E+03  0.14983829795E+03  0.00000000000E+00 0.  1.
         -3    1    1    2    0  503  0.12983153275E+02 -0.28734656232E+02 -0.27225128935E+02  0.41658737178E+02  0.00000000000E+00 0. -1.
<mgrwt>
<rscale>  2 0.31531615E+02</rscale>
<asrwt>0</asrwt>
<pdfrwt beam="1">  1       21 0.13683764E-02 0.31531615E+02</pdfrwt>
<pdfrwt beam="2">  1       21 0.28092708E-01 0.31531615E+02</pdfrwt>
<totfact> 0.22342757E+07</totfact>
</mgrwt>
</event>
<event>
 4    1  0.7499963E+004  0.4764742E+02  0.7546771E-02  0.1458460E+00
         21   -1    0    0  503  502  0.00000000000E+00  0.00000000000E+00  0.14141035777E+03  0.14141035777E+03  0.00000000000E+00 0. -1.
         21   -1    0    0  501  503 -0.00000000000E+00 -0.00000000000E+00 -0.21532252244E+02  0.21532252244E+02  0.00000000000E+00 0. -1.
          5    1    1    2  501    0 -0.32825289706E+02 -0.34536599868E+02  0.10103131726E+03  0.11170319352E+03  0.00000000000E+00 0.  1.
         -5    1    1    2    0  502  0.32825289706E+02  0.34536599868E+02  0.18846788263E+02  0.51239416493E+02  0.00000000000E+00 0. -1.
<mgrwt>
<rscale>  2 0.47647417E+02</rscale>
<asrwt>0</asrwt>
<pdfrwt beam="1">  1       21 0.21755439E-01 0.47647417E+02</pdfrwt>
<pdfrwt beam="2">  1       21 0.33126543E-02 0.47647417E+02</pdfrwt>
<totfact> 0.94662694E+06</totfact>
</mgrwt>
</event>
<event>
 4    1  0.7499963E+004  0.2262617E+02  0.7546771E-02  0.1697642E+00
         21   -1    0    0  503  502  0.00000000000E+00  0.00000000000E+00  0.59743821686E+02  0.59743821686E+02  0.00000000000E+00 0. -1.
         21   -1    0    0  501  503 -0.00000000000E+00 -0.00000000000E+00 -0.87727565469E+01  0.87727565469E+01  0.00000000000E+00 0. -1.
          4    1    1    2  501    0 -0.22032278255E+02 -0.51499952385E+01  0.30706759132E+02  0.38142480156E+02  0.00000000000E+00 0.  1.
         -4    1    1    2    0  502  0.22032278255E+02  0.51499952385E+01  0.20264306007E+02  0.30374098077E+02  0.00000000000E+00 0. -1.
<mgrwt>
<rscale>  2 0.22626174E+02</rscale>
<asrwt>0</asrwt>
<pdfrwt beam="1">  1       21 0.91913569E-02 0.22626174E+02</pdfrwt>
<pdfrwt beam="2">  1       21 0.13496549E-02 0.22626174E+02</pdfrwt>
<totfact> 0.14522603E+08</totfact>
</mgrwt>
</event>
<event>
 4    1  0.7499963E+004  0.2556020E+02  0.7546771E-02  0.1653084E+00
         21   -1    0    0  503  502  0.00000000000E+00  0.00000000000E+00  0.85485757101E+02  0.85485757101E+02  0.00000000000E+00 0.  1.
         21   -1    0    0  501  503 -0.00000000000E+00 -0.00000000000E+00 -0.85557833167E+01  0.85557833167E+01  0.00000000000E+00 0.  1.
          2    1    1    2  501    0  0.96682415944E+00  0.25541903637E+02  0.23102332835E+02  0.34453466775E+02  0.00000000000E+00 0. -1.
         -2    1    1    2    0  502 -0.96682415944E+00 -0.25541903637E+02  0.53827640949E+02  0.59588073643E+02  0.00000000000E+00 0.  1.
<mgrwt>
<rscale>  2 0.25560195E+02</rscale>
<asrwt>0</asrwt>
<pdfrwt beam="1">  1       21 0.13151654E-01 0.25560195E+02</pdfrwt>
<pdfrwt beam="2">  1       21 0.13162744E-02 0.25560195E+02</pdfrwt>
<totfact> 0.85862544E+07</totfact>
</mgrwt>
</event>
<event>
 4    1  0.7499963E+004  0.2350700E+02  0.7546771E-02  0.1683421E+00
         21   -1    0    0  501  502  0.00000000000E+00  0.00000000000E+00  0.29040791268E+02  0.29040791268E+02  0.00000000000E+00 0.  1.
         21   -1    0    0  502  503 -0.00000000000E+00 -0.00000000000E+00 -0.20873754062E+02  0.20873754062E+02  0.00000000000E+00 0.  1.
          3    1    1    2  501    0 -0.11973594593E+02 -0.20228996892E+02  0.11505498686E+02  0.26171659916E+02  0.00000000000E+00 0. -1.
         -3    1    1    2    0  503  0.11973594593E+02  0.20228996892E+02 -0.33384614809E+01  0.23742885414E+02  0.00000000000E+00 0.  1.
<mgrwt>
<rscale>  2 0.23507005E+02</rscale>
<asrwt>0</asrwt>
<pdfrwt beam="1">  1       21 0.44678140E-02 0.23507005E+02</pdfrwt>
<pdfrwt beam="2">  1       21 0.32113468E-02 0.23507005E+02</pdfrwt>
<totfact> 0.12403998E+08</totfact>
</mgrwt>
</event>
<event>
 4    1  0.7499963E+004  0.2844506E+02  0.7546771E-02  0.1615941E+00
         21   -1    0    0  501  502  0.00000000000E+00  0.00000000000E+00  0.35523898256E+03  0.35523898256E+03  0.00000000000E+00 0.  1.
         21   -1    0    0  502  503 -0.00000000000E+00 -0.00000000000E+00 -0.23723880583E+01  0.23723880583E+01  0.00000000000E+00 0.  1.
          2    1    1    2  501    0  0.28298104726E+02  0.28877036710E+01  0.21215864938E+03  0.21405703462E+03  0.00000000000E+00 0.  1.
         -2    1    1    2    0  503 -0.28298104726E+02 -0.28877036710E+01  0.14070794512E+03  0.14355433600E+03  0.00000000000E+00 0. -1.
<mgrwt>
<rscale>  2 0.28445062E+02</rscale>
<asrwt>0</asrwt>
<pdfrwt beam="1">  1       21 0.54652109E-01 0.28445062E+02</pdfrwt>
<pdfrwt beam="2">  1       21 0.36498306E-03 0.28445062E+02</pdfrwt>
<totfact> 0.44927432E+07</totfact>
</mgrwt>
</event>
<event>
 4    1  0.7499963E+004  0.2065487E+02  0.7546771E-02  0.1732610E+00
         21   -1    0    0  503  502  0.00000000000E+00  0.00000000000E+00  0.92069811810E+01  0.92069811810E+01  0.00000000000E+00 0. -1.
         21   -1    0    0  501  503 -0.00000000000E+00 -0.00000000000E+00 -0.46488179519E+02  0.46488179519E+02  0.00000000000E+00 0. -1.
          1    1    1    2  501    0  0.20460717492E+02  0.28253564969E+01 -0.20228807613E+02  0.28910694510E+02  0.00000000000E+00 0. -1.
         -1    1    1    2    0  502 -0.20460717492E+02 -0.28253564969E+01 -0.17052390725E+02  0.26784466189E+02  0.00000000000E+00 0.  1.
<mgrwt>
<rscale>  2 0.20654869E+02</rscale>
<asrwt>0</asrwt>
<pdfrwt beam="1">  1       21 0.14164586E-02 0.20654869E+02</pdfrwt>
<pdfrwt beam="2">  1       21 0.71520278E-02 0.20654869E+02</pdfrwt>
<totfact> 0.19746867E+08</totfact>
</mgrwt>
</event>
<event>
 4    1  0.7499963E+004  0.2056967E+02  0.7546771E-02  0.1734231E+00
         21   -1    0    0  501  502  0.00000000000E+00  0.00000000000E+00  0.18874430821E+01  0.18874430821E+01  0.00000000000E+00 0.  1.
         21   -1    0    0  502  503 -0.00000000000E+00 -0.00000000000E+00 -0.25370648490E+03  0.25370648490E+03  0.00000000000E+00 0.  1.
          1    1    1    2  501    0  0.15564105886E+01  0.20510699145E+02 -0.82305938776E+02  0.84837366480E+02  0.00000000000E+00 0.  1.
         -1    1    1    2    0  503 -0.15564105886E+01 -0.20510699145E+02 -0.16951310305E+03  0.17075656151E+03  0.00000000000E+00 0. -1.
<mgrwt>
<rscale>  2 0.20569667E+02</rscale>
<asrwt>0</asrwt>
<pdfrwt beam="1">  1       21 0.29037592E-03 0.20569667E+02</pdfrwt>
<pdfrwt beam="2">  1       21 0.39031758E-01 0.20569667E+02</pdfrwt>
<totfact> 0.11102724E+08</totfact>
</mgrwt>
</event>
<event>
 4    1  0.7499963E+004  0.2220771E+02  0.7546771E-02  0.1704684E+00
         21   -1    0    0  503  502  0.00000000000E+00  0.00000000000E+00  0.23968482444E+03  0.23968482444E+03  0.00000000000E+00 0. -1.
         21   -1    0    0  501  503 -0.00000000000E+00 -0.00000000000E+00 -0.21033659962E+01  0.21033659962E+01  0.00000000000E+00 0. -1.
          5    1    1    2  501    0 -0.18407613380E+01 -0.22131288418E+02  0.10096350248E+03  0.10337703402E+03  0.00000000000E+00 0.  1.
         -5    1    1    2    0  502  0.18407613380E+01  0.22131288418E+02  0.13661795597E+03  0.13841115642E+03  0.00000000000E+00 0. -1.
<mgrwt>
<rscale>  2 0.22207709E+02</rscale>
<asrwt>0</asrwt>
<pdfrwt beam="1">  1       21 0.36874567E-01 0.22207709E+02</pdfrwt>
<pdfrwt beam="2">  1       21 0.32359496E-03 0.22207709E+02</pdfrwt>
<totfact> 0.10769721E+08</totfact>
</mgrwt>
</event>
<event>
 4    1  0.7499963E+004  0.2327853E+02  0.7546771E-02  0.1687035E+00
         21   -1    0    0  501  502  0.00000000000E+00  0.00000000000E+00  0.20952496887E+03  0.20952496887E+03  0.00000000000E+00 0. -1.
         21   -1    0    0  502  503 -0.00000000000E+00 -0.00000000000E+00 -0.26421730093E+01  0.26421730093E+01  0.00000000000E+00 0. -1.
          5    1    1    2  501    0 -0.29113237239E+01 -0.23095758233E+02  0.88011845108E+02  0.91038314646E+02  0.00000000000E+00 0. -1.
         -5    1    1    2    0  503  0.29113237239E+01  0.23095758233E+02  0.11887095076E+03  0.12112882724E+03  0.00000000000E+00 0.  1.
<mgrwt>
<rscale>  2 0.23278528E+02</rscale>
<asrwt>0</asrwt>
<pdfrwt beam="1">  1       21 0.32234597E-01 0.23278528E+02</pdfrwt>
<pdfrwt beam="2">  1       21 0.40648832E-03 0.23278528E+02</pdfrwt>
<totfact> 0.10016856E+08</totfact>
</mgrwt>
</event>
<event>
 4    1  0.7499963E+004  0.3386303E+02  0.7546771E-02  0.1558935E+00
         21   -1    0    0  503  502  0.00000000000E+00  0.00000000000E+00  0.49938103414E+01  0.49938103414E+01  0.00000000000E+00 0.  1.
         21   -1    0    0  501  503 -0.00000000000E+00 -0.00000000000E+00 -0.25546382237E+03  0.25546382237E+03  0.00000000000E+00 0.  1.
          5    1    1    2  501    0  0.28949805436E+02 -0.17567401821E+02 -0.83818178744E+02  0.90400176601E+02  0.00000000000E+00 0.  1.
         -5    1    1    2    0  502 -0.28949805436E+02  0.17567401821E+02 -0.16665183329E+03  0.17005745611E+03  0.00000000000E+00 0. -1.
<mgrwt>
<rscale>  2 0.33863031E+02</rscale>
<asrwt>0</asrwt>
<pdfrwt beam="1">  1       21 0.76827856E-03 0.33863031E+02</pdfrwt>
<pdfrwt beam="2">  1       21 0.39302124E-01 0.33863031E+02</pdfrwt>
<totfact> 0.29076205E+07</totfact>
</mgrwt>
</event>
<event>
 4    1  0.7499963E+004  0.2184615E+02  0.7546771E-02  0.1710926E+00
         21   -1    0    0  503  502  0.00000000000E+00  0.00000000000E+00  0.24676223459E+00  0.24676223459E+00  0.00000000000E+00 0.  1.
         21   -1    0    0  501  503 -0.00000000000E+00 -0.00000000000E+00 -0.19373184064E+04  0.19373184064E+04  0.00000000000E+00 0.  1.
          3    1    1    2  501    0 -0.13400427826E+02 -0.17253489858E+02 -0.92883978897E+03  0.92909666232E+03  0.00000000000E+00 0.  1.
         -3    1    1    2    0  502  0.13400427826E+02  0.17253489858E+02 -0.10082318552E+04  0.10084685064E+04  0.00000000000E+00 0. -1.
<mgrwt>
<rscale>  2 0.21846152E+02</rscale>
<asrwt>0</asrwt>
<pdfrwt beam="1">  1       21 0.37964320E-04 0.21846152E+02</pdfrwt>
<pdfrwt beam="2">  1       21 0.29804193E+00 0.21846152E+02</pdfrwt>
<totfact> 0.19463285E+07</totfact>
</mgrwt>
</event>
<event>
 4    1  0.7499963E+004  0.2026108E+02  0.7546771E-02  0.1740186E+00
         21   -1    0    0  501  502  0.00000000000E+00  0.00000000000E+00  0.75130328418E+02  0.75130328418E+02  0.00000000000E+00 0. -1.
         21   -1    0    0  502  503 -0.00000000000E+00 -0.00000000000E+00 -0.67856378094E+01  0.67856378094E+01  0.00000000000E+00 0. -1.
          4    1    1    2  501    0 -0.13669394388E+02  0.14955227323E+02  0.16096378966E+02  0.25876718939E+02  0.00000000000E+00 0.  1.
         -4    1    1    2    0  503  0.13669394388E+02 -0.14955227323E+02  0.52248311642E+02  0.56039247289E+02  0.00000000000E+00 0. -1.
<mgrwt>
<rscale>  2 0.20261075E+02</rscale>
<asrwt>0</asrwt>
<pdfrwt beam="1">  1       21 0.11558512E-01 0.20261075E+02</pdfrwt>
<pdfrwt beam="2">  1       21 0.10439443E-02 0.20261075E+02</pdfrwt>
<totfact> 0.14158247E+08</totfact>
</mgrwt>
</event>
<event>
 4    1  0.7499963E+004  0.2547344E+02  0.7546771E-02  0.1654293E+00
         21   -1    0    0  503  502  0.00000000000E+00  0.00000000000E+00  0.25765475287E+03  0.25765475287E+03  0.00000000000E+00 0.  1.
         21   -1    0    0  501  503 -0.00000000000E+00 -0.00000000000E+00 -0.26243924985E+01  0.26243924985E+01  0.00000000000E+00 0.  1.
          2    1    1    2  501    0  0.11809953023E+02  0.22570355972E+02  0.15366011420E+03  0.15575726838E+03  0.00000000000E+00 0. -1.
         -2    1    1    2    0  502 -0.11809953023E+02 -0.22570355972E+02  0.10137024618E+03  0.10452187699E+03  0.00000000000E+00 0.  1.
<mgrwt>
<rscale>  2 0.25473436E+02</rscale>
<asrwt>0</asrwt>
<pdfrwt beam="1">  1       21 0.39639173E-01 0.25473436E+02</pdfrwt>
<pdfrwt beam="2">  1       21 0.40375290E-03 0.25473436E+02</pdfrwt>
<totfact> 0.70411948E+07</totfact>
</mgrwt>
</event>
<event>
 4    1  0.7499963E+004  0.2119027E+02  0.7546771E-02  0.1722644E+00
         21   -1    0    0  503  502  0.00000000000E+00  0.00000000000E+00  0.14717563351E+04  0.14717563351E+04  0.00000000000E+00 0. -1.
         21   -1    0    0  501  503 -0.00000000000E+00 -0.00000000000E+00 -0.54415628643E+00  0.54415628643E+00  0.00000000000E+00 0. -1.
          5    1    1    2  501    0  0.17774647512E+02 -0.11536438931E+02  0.12235366458E+04  0.12237201277E+04  0.00000000000E+00 0. -1.
         -5    1    1    2    0  502 -0.17774647512E+02  0.11536438931E+02  0.24767553303E+03  0.24858036363E+03  0.00000000000E+00 0.  1.
<mgrwt>
<rscale>  2 0.21190269E+02</rscale>
<asrwt>0</asrwt>
<pdfrwt beam="1">  1       21 0.22642086E+00 0.21190269E+02</pdfrwt>
<pdfrwt beam="2">  1       21 0.83717530E-04 0.21190269E+02</pdfrwt>
<totfact> 0.14292892E+07</totfact>
</mgrwt>
</event>
<event>
 4    1  0.7499963E+004  0.2609243E+02  0.7546771E-02  0.1645789E+00
         21   -1    0    0  501  502  0.00000000000E+00  0.00000000000E+00  0.29885375451E+01  0.29885375451E+01  0.00000000000E+00 0.  1.
         21   -1    0    0  502  503 -0.00000000000E+00 -0.00000000000E+00 -0.23874513120E+03  0.23874513120E+03  0.00000000000E+00 0.  1.
          3    1    1    2  501    0  0.25670719376E+01  0.25965838847E+02 -0.14374726331E+03  0.14609616817E+03  0.00000000000E+00 0. -1.
         -3    1    1    2    0  503 -0.25670719376E+01 -0.25965838847E+02 -0.92009330343E+02  0.95637500571E+02  0.00000000000E+00 0.  1.
<mgrwt>
<rscale>  2 0.26092425E+02</rscale>
<asrwt>0</asrwt>
<pdfrwt beam="1">  1       21 0.45977517E-03 0.26092425E+02</pdfrwt>
<pdfrwt beam="2">  1       21 0.36730007E-01 0.26092425E+02</pdfrwt>
<totfact> 0.67471055E+07</totfact>
</mgrwt>
</event>
<event>
 4    1  0.7499963E+004  0.2608436E+02  0.7546771E-02  0.1645898E+00
         21   -1    0    0  503  502  0.00000000000E+00  0.00000000000E+00  0.47251513340E+00  0.47251513340E+00  0.00000000000E+00 0. -1.
         21   -1    0    0  501  503 -0.00000000000E+00 -0.00000000000E+00 -0.14902000381E+04  0.14902000381E+04  0.00000000000E+00 0. -1.
          1    1    1    2  501    0  0.49985441197E+01 -0.25600948717E+02 -0.60798498884E+03  0.60854427996E+03  0.00000000000E+00 0.  1.
         -1    1    1    2    0  502 -0.49985441197E+01  0.25600948717E+02 -0.88174253415E+03  0.88212827330E+03  0.00000000000E+00 0. -1.
<mgrwt>
<rscale>  2 0.26084363E+02</rscale>
<asrwt>0</asrwt>
<pdfrwt beam="1">  1       21 0.72695720E-04 0.26084363E+02</pdfrwt>
<pdfrwt beam="2">  1       21 0.22925813E+00 0.26084363E+02</pdfrwt>
<totfact> 0.17271246E+07</totfact>
</mgrwt>
</event>
<event>
 4    1  0.7499963E+004  0.3118547E+02  0.7546771E-02  0.1585343E+00
         21   -1    0    0  503  502  0.00000000000E+00  0.00000000000E+00  0.12953546203E+02  0.12953546203E+02  0.00000000000E+00 0. -1.
         21   -1    0    0  501  503 -0.00000000000E+00 -0.00000000000E+00 -0.20782664130E+03  0.20782664130E+03  0.00000000000E+00 0. -1.
          1    1    1    2  501    0 -0.30731310046E+02 -0.53028520119E+01 -0.18566194252E+03  0.18826282309E+03  0.00000000000E+00 0. -1.
         -1    1    1    2    0  502  0.30731310046E+02  0.53028520119E+01 -0.92111525747E+01  0.32517364413E+02  0.00000000000E+00 0.  1.
<mgrwt>
<rscale>  2 0.31185472E+02</rscale>
<asrwt>0</asrwt>
<pdfrwt beam="1">  1       21 0.19928535E-02 0.31185472E+02</pdfrwt>
<pdfrwt beam="2">  1       21 0.31973325E-01 0.31185472E+02</pdfrwt>
<totfact> 0.98438183E+06</totfact>
</mgrwt>
</event>
<event>
 4    1  0.7499963E+004  0.2570128E+02  0.7546771E-02  0.1651129E+00
         21   -1    0    0  501  502  0.00000000000E+00  0.00000000000E+00  0.54863243172E+01  0.54863243172E+01  0.00000000000E+00 0. -1.
         21   -1    0    0  502  503 -0.00000000000E+00 -0.00000000000E+00 -0.12196755590E+03  0.12196755590E+03  0.00000000000E+00 0. -1.
          1    1    1    2  501    0  0.25498745828E+02  0.32202009588E+01 -0.65464232879E+02  0.70328667835E+02  0.00000000000E+00 0. -1.
         -1    1    1    2    0  503 -0.25498745828E+02 -0.32202009588E+01 -0.51016998705E+02  0.57125212383E+02  0.00000000000E+00 0.  1.
<mgrwt>
<rscale>  2 0.25701279E+02</rscale>
<asrwt>0</asrwt>
<pdfrwt beam="1">  1       21 0.84404989E-03 0.25701279E+02</pdfrwt>
<pdfrwt beam="2">  1       21 0.18764239E-01 0.25701279E+02</pdfrwt>
<totfact> 0.91363399E+07</totfact>
</mgrwt>
</event>
<event>
 4    1  0.7499963E+004  0.2531084E+02  0.7546771E-02  0.1656577E+00
         21   -1    0    0  503  502  0.00000000000E+00  0.00000000000E+00  0.98476244995E+00  0.98476244995E+00  0.00000000000E+00 0.  1.
         21   -1    0    0  501  503 -0.00000000000E+00 -0.00000000000E+00 -0.65068383977E+03  0.65068383977E+03  0.00000000000E+00 0.  1.
          2    1    1    2  501    0 -0.24929990562E+02 -0.43742784442E+01 -0.32949543725E+03  0.33046615850E+03  0.00000000000E+00 0. -1.
         -2    1    1    2    0  502  0.24929990562E+02  0.43742784442E+01 -0.32020364006E+03  0.32120244372E+03  0.00000000000E+00 0.  1.
<mgrwt>
<rscale>  2 0.25310842E+02</rscale>
<asrwt>0</asrwt>
<pdfrwt beam="1">  1       21 0.15150218E-03 0.25310842E+02</pdfrwt>
<pdfrwt beam="2">  1       21 0.10010503E+00 0.25310842E+02</pdfrwt>
<totfact> 0.44676863E+07</totfact>
</mgrwt>
</event>
<event>
 4    1  0.7499963E+004  0.2017949E+02  0.7546771E-02  0.1741782E+00
         21   -1    0    0  501  502  0.00000000000E+00  0.00000000000E+00  0.32016623132E+02  0.32016623132E+02  0.00000000000E+00 0.  1.
         21   -1    0    0  502  503 -0.00000000000E+00 -0.00000000000E+00 -0.12725337634E+02  0.12725337634E+02  0.00000000000E+00 0.  1.
          1    1    1    2  501    0 -0.17329701868E+02 -0.10338913109E+02  0.91369665598E+01  0.22151655672E+02  0.00000000000E+00 0. -1.
         -1    1    1    2    0  503  0.17329701868E+02  0.10338913109E+02  0.10154318938E+02  0.22590305094E+02  0.00000000000E+00 0.  1.
<mgrwt>
<rscale>  2 0.20179487E+02</rscale>
<asrwt>0</asrwt>
<pdfrwt beam="1">  1       21 0.49256343E-02 0.20179487E+02</pdfrwt>
<pdfrwt beam="2">  1       21 0.19577443E-02 0.20179487E+02</pdfrwt>
<totfact> 0.21756540E+08</totfact>
</mgrwt>
</event>
<event>
 4    1  0.7499963E+004  0.2081783E+02  0.7546771E-02  0.1729537E+00
         21   -1    0    0  503  502  0.00000000000E+00  0.00000000000E+00  0.15639004693E+02  0.15639004693E+02  0.00000000000E+00 0. -1.
         21   -1    0    0  501  503 -0.00000000000E+00 -0.00000000000E+00 -0.28664951690E+02  0.28664951690E+02  0.00000000000E+00 0. -1.
          1    1    1    2  501    0  0.19230804318E+02 -0.79723339124E+01 -0.10552793525E+02  0.23339738514E+02  0.00000000000E+00 0. -1.
         -1    1    1    2    0  502 -0.19230804318E+02  0.79723339124E+01 -0.24731534725E+01  0.20964217868E+02  0.00000000000E+00 0.  1.
<mgrwt>
<rscale>  2 0.20817828E+02</rscale>
<asrwt>0</asrwt>
<pdfrwt beam="1">  1       21 0.24060007E-02 0.20817828E+02</pdfrwt>
<pdfrwt beam="2">  1       21 0.44099925E-02 0.20817828E+02</pdfrwt>
<totfact> 0.19083807E+08</totfact>
</mgrwt>
</event>
<event>
 4    1  0.7499963E+004  0.2368067E+02  0.7546771E-02  0.1680708E+00
         21   -1    0    0  503  502  0.00000000000E+00  0.00000000000E+00  0.22712431983E+03  0.22712431983E+03  0.00000000000E+00 0.  1.
         21   -1    0    0  501  503 -0.00000000000E+00 -0.00000000000E+00 -0.24697524241E+01  0.24697524241E+01  0.00000000000E+00 0.  1.
          1    1    1    2  501    0  0.19811465751E+02 -0.12972279620E+02  0.11430581625E+03  0.11673300237E+03  0.00000000000E+00 0. -1.
         -1    1    1    2    0  502 -0.19811465751E+02  0.12972279620E+02  0.11034875116E+03  0.11286106988E+03  0.00000000000E+00 0.  1.
<mgrwt>
<rscale>  2 0.23680672E+02</rscale>
<asrwt>0</asrwt>
<pdfrwt beam="1">  1       21 0.34942186E-01 0.23680672E+02</pdfrwt>
<pdfrwt beam="2">  1       21 0.37996209E-03 0.23680672E+02</pdfrwt>
<totfact> 0.95740352E+07</totfact>
</mgrwt>
</event>
<event>
 4    1  0.7499963E+004  0.2103178E+02  0.7546771E-02  0.1725555E+00
         21   -1    0    0  501  502  0.00000000000E+00  0.00000000000E+00  0.51104617197E+01  0.51104617197E+01  0.00000000000E+00 0. -1.
         21   -1    0    0  502  503 -0.00000000000E+00 -0.00000000000E+00 -0.91241325442E+02  0.91241325442E+02  0.00000000000E+00 0. -1.
          1    1    1    2  501    0 -0.18520598511E+02  0.99661121808E+01 -0.53983622884E+02  0.57935891302E+02  0.00000000000E+00 0. -1.
         -1    1    1    2    0  503  0.18520598511E+02 -0.99661121808E+01 -0.32147240838E+02  0.38415895860E+02  0.00000000000E+00 0.  1.
<mgrwt>
<rscale>  2 0.21031785E+02</rscale>
<asrwt>0</asrwt>
<pdfrwt beam="1">  1       21 0.78622495E-03 0.21031785E+02</pdfrwt>
<pdfrwt beam="2">  1       21 0.14037126E-01 0.21031785E+02</pdfrwt>
<totfact> 0.15791085E+08</totfact>
</mgrwt>
</event>
<event>
 4    1  0.7499963E+004  0.2884085E+02  0.7546771E-02  0.1611267E+00
         21   -1    0    0  503  502  0.00000000000E+00  0.00000000000E+00  0.22024584180E+02  0.22024584180E+02  0.00000000000E+00 0. -1.
         21   -1    0    0  501  503 -0.00000000000E+00 -0.00000000000E+00 -0.38356923083E+02  0.38356923083E+02  0.00000000000E+00 0. -1.
          2    1    1    2  501    0  0.14616552434E+01 -0.28803783520E+02 -0.44208839698E+01  0.29177707178E+02  0.00000000000E+00 0.  1.
         -2    1    1    2    0  502 -0.14616552434E+01  0.28803783520E+02 -0.11911454933E+02  0.31203800085E+02  0.00000000000E+00 0. -1.
<mgrwt>
<rscale>  2 0.28840846E+02</rscale>
<asrwt>0</asrwt>
<pdfrwt beam="1">  1       21 0.33883975E-02 0.28840846E+02</pdfrwt>
<pdfrwt beam="2">  1       21 0.59010651E-02 0.28840846E+02</pdfrwt>
<totfact> 0.77109266E+07</totfact>
</mgrwt>
</event>
<event>
 4    1  0.7499963E+004  0.2022136E+02  0.7546771E-02  0.1740962E+00
         21   -1    0    0  503  502  0.00000000000E+00  0.00000000000E+00  0.52321556108E+00  0.52321556108E+00  0.00000000000E+00 0. -1.
         21   -1    0    0  501  503 -0.00000000000E+00 -0.00000000000E+00 -0.82316227988E+03  0.82316227988E+03  0.00000000000E+00 0. -1.
          5    1    1    2  501    0 -0.18901659858E+02  0.71854483653E+01 -0.50395046934E+03  0.50435600419E+03  0.00000000000E+00 0.  1.
         -5    1    1    2    0  502  0.18901659858E+02 -0.71854483653E+01 -0.31868859498E+03  0.31932949125E+03  0.00000000000E+00 0. -1.
<mgrwt>
<rscale>  2 0.20221360E+02</rscale>
<asrwt>0</asrwt>
<pdfrwt beam="1">  1       21 0.80495224E-04 0.20221360E+02</pdfrwt>
<pdfrwt beam="2">  1       21 0.12663953E+00 0.20221360E+02</pdfrwt>
<totfact> 0.61953150E+07</totfact>
</mgrwt>
</event>
<event>
 4    1  0.7499963E+004  0.2000641E+02  0.7546771E-02  0.1745201E+00
         21   -1    0    0  501  502  0.00000000000E+00  0.00000000000E+00  0.14644478176E+02  0.14644478176E+02  0.00000000000E+00 0.  1.
         21   -1    0    0  502  503 -0.00000000000E+00 -0.00000000000E+00 -0.29095891620E+02  0.29095891620E+02  0.00000000000E+00 0.  1.
          5    1    1    2  501    0 -0.95318945791E-01  0.20006184434E+02 -0.18402050847E+01  0.20090864990E+02  0.00000000000E+00 0. -1.
         -5    1    1    2    0  503  0.95318945791E-01 -0.20006184434E+02 -0.12611208360E+02  0.23649504806E+02  0.00000000000E+00 0.  1.
<mgrwt>
<rscale>  2 0.20006412E+02</rscale>
<asrwt>0</asrwt>
<pdfrwt beam="1">  1       21 0.22529967E-02 0.20006412E+02</pdfrwt>
<pdfrwt beam="2">  1       21 0.44762910E-02 0.20006412E+02</pdfrwt>
<totfact> 0.20351543E+08</totfact>
</mgrwt>
</event>
<event>
 4    1  0.7499963E+004  0.2998210E+02  0.7546771E-02  0.1598287E+00
         21   -1    0    0  503  502  0.00000000000E+00  0.00000000000E+00  0.28666696418E+03  0.28666696418E+03  0.00000000000E+00 0.  1.
         21   -1    0    0  501  503 -0.00000000000E+00 -0.00000000000E+00 -0.31369027262E+01  0.31369027262E+01  0.00000000000E+00 0.  1.
          5    1    1    2  501    0 -0.24102970988E+02  0.17831795244E+02  0.14449953740E+03  0.14757724229E+03  0.00000000000E+00 0. -1.
         -5    1    1    2    0  502  0.24102970988E+02 -0.17831795244E+02  0.13903052405E+03  0.14222662462E+03  0.00000000000E+00 0.  1.
<mgrwt>
<rscale>  2 0.29982097E+02</rscale>
<asrwt>0</asrwt>
<pdfrwt beam="1">  1       21 0.44102589E-01 0.29982097E+02</pdfrwt>
<pdfrwt beam="2">  1       21 0.48260065E-03 0.29982097E+02</pdfrwt>
<totfact> 0.45710189E+07</totfact>
</mgrwt>
</event>
<event>
 4    1  0.7499963E+004  0.2077566E+02  0.7546771E-02  0.1730329E+00
         21   -1    0    0  501  502  0.00000000000E+00  0.00000000000E+00  0.10044720112E+04  0.10044720112E+04  0.00000000000E+00 0. -1.
         21   -1    0    0  502  503 -0.00000000000E+00 -0.00000000000E+00 -0.45489147630E+00  0.45489147630E+00  0.00000000000E+00 0. -1.
          2    1    1    2  501    0 -0.20768628458E+02 -0.54046822647E+00  0.38378000894E+03  0.38434193539E+03  0.00000000000E+00 0.  1.
         -2    1    1    2    0  503  0.20768628458E+02  0.54046822647E+00  0.62023711083E+03  0.62058496734E+03  0.00000000000E+00 0. -1.
<mgrwt>
<rscale>  2 0.20775660E+02</rscale>
<asrwt>0</asrwt>
<pdfrwt beam="1">  1       21 0.15453238E+00 0.20775660E+02</pdfrwt>
<pdfrwt beam="2">  1       21 0.69984108E-04 0.20775660E+02</pdfrwt>
<totfact> 0.47854041E+07</totfact>
</mgrwt>
</event>
<event>
 4    1  0.7499963E+004  0.2027829E+02  0.7546771E-02  0.1739850E+00
         21   -1    0    0  501  502  0.00000000000E+00  0.00000000000E+00  0.43263728008E+03  0.43263728008E+03  0.00000000000E+00 0. -1.
         21   -1    0    0  502  503 -0.00000000000E+00 -0.00000000000E+00 -0.10441664839E+01  0.10441664839E+01  0.00000000000E+00 0. -1.
          4    1    1    2  501    0  0.17564237461E+02  0.10134417831E+02  0.15084088966E+03  0.15219784116E+03  0.00000000000E+00 0. -1.
         -4    1    1    2    0  503 -0.17564237461E+02 -0.10134417831E+02  0.28075222394E+03  0.28148360540E+03  0.00000000000E+00 0.  1.
<mgrwt>
<rscale>  2 0.20278285E+02</rscale>
<asrwt>0</asrwt>
<pdfrwt beam="1">  1       21 0.66559438E-01 0.20278285E+02</pdfrwt>
<pdfrwt beam="2">  1       21 0.16064134E-03 0.20278285E+02</pdfrwt>
<totfact> 0.92077619E+07</totfact>
</mgrwt>
</event>
<event>
 4    1  0.7499963E+004  0.3094791E+02  0.7546771E-02  0.1587841E+00
         21   -1    0    0  503  502  0.00000000000E+00  0.00000000000E+00  0.25381450595E+03  0.25381450595E+03  0.00000000000E+00 0. -1.
         21   -1    0    0  501  503 -0.00000000000E+00 -0.00000000000E+00 -0.40627969284E+01  0.40627969284E+01  0.00000000000E+00 0. -1.
          2    1    1    2  501    0  0.17218321712E+02 -0.25715800521E+02  0.90470125564E+02  0.95617031007E+02  0.00000000000E+00 0. -1.
         -2    1    1    2    0  502 -0.17218321712E+02  0.25715800521E+02  0.15928158346E+03  0.16226027187E+03  0.00000000000E+00 0.  1.
<mgrwt>
<rscale>  2 0.30947908E+02</rscale>
<asrwt>0</asrwt>
<pdfrwt beam="1">  1       21 0.39048373E-01 0.30947908E+02</pdfrwt>
<pdfrwt beam="2">  1       21 0.62504588E-03 0.30947908E+02</pdfrwt>
<totfact> 0.39482440E+07</totfact>
</mgrwt>
</event>
<event>
 4    1  0.7499963E+004  0.2013486E+02  0.7546771E-02  0.1742660E+00
         21   -1    0    0  501  502  0.00000000000E+00  0.00000000000E+00  0.16203581644E+02  0.16203581644E+02  0.00000000000E+00 0.  1.
         21   -1    0    0  502  503 -0.00000000000E+00 -0.00000000000E+00 -0.26311169471E+02  0.26311169471E+02  0.00000000000E+00 0.  1.
          3    1    1    2  501    0  0.11895525662E+02  0.16245273531E+02 -0.97629527130E+01  0.22376945469E+02  0.00000000000E+00 0. -1.
         -3    1    1    2    0  503 -0.11895525662E+02 -0.16245273531E+02 -0.34463511394E+00  0.20137805646E+02  0.00000000000E+00 0.  1.
<mgrwt>
<rscale>  2 0.20134856E+02</rscale>
<asrwt>0</asrwt>
<pdfrwt beam="1">  1       21 0.24928588E-02 0.20134856E+02</pdfrwt>
<pdfrwt beam="2">  1       21 0.40478722E-02 0.20134856E+02</pdfrwt>
<totfact> 0.20453075E+08</totfact>
</mgrwt>
</event>
<event>
 4    1  0.7499963E+004  0.3688165E+02  0.7546771E-02  0.1532499E+00
         21   -1    0    0  501  502  0.00000000000E+00  0.00000000000E+00  0.23360804859E+01  0.23360804859E+01  0.00000000000E+00 0. -1.
         21   -1    0    0  502  503 -0.00000000000E+00 -0.00000000000E+00 -0.59505638752E+03  0.59505638752E+03  0.00000000000E+00 0. -1.
          3    1    1    2  501    0  0.34195437652E+02  0.13817680450E+02 -0.34012553173E+03  0.34211932653E+03  0.00000000000E+00 0. -1.
         -3    1    1    2    0  503 -0.34195437652E+02 -0.13817680450E+02 -0.25259477531E+03  0.25527314148E+03  0.00000000000E+00 0.  1.
<mgrwt>
<rscale>  2 0.36881652E+02</rscale>
<asrwt>0</asrwt>
<pdfrwt beam="1">  1       21 0.35939650E-03 0.36881652E+02</pdfrwt>
<pdfrwt beam="2">  1       21 0.91547264E-01 0.36881652E+02</pdfrwt>
<totfact> 0.16373065E+07</totfact>
</mgrwt>
</event>
<event>
 4    1  0.7499963E+004  0.2787930E+02  0.7546771E-02  0.1622787E+00
         21   -1    0    0  501  502  0.00000000000E+00  0.00000000000E+00  0.19396000595E+01  0.19396000595E+01  0.00000000000E+00 0. -1.
         21   -1    0    0  502  503 -0.00000000000E+00 -0.00000000000E+00 -0.46417960610E+03  0.46417960610E+03  0.00000000000E+00 0. -1.
          5    1    1    2  501    0  0.15519285693E+02  0.23160465071E+02 -0.31728669690E+03  0.31850918888E+03  0.00000000000E+00 0. -1.
         -5    1    1    2    0  503 -0.15519285693E+02 -0.23160465071E+02 -0.14495330913E+03  0.14761001727E+03  0.00000000000E+00 0.  1.
<mgrwt>
<rscale>  2 0.27879300E+02</rscale>
<asrwt>0</asrwt>
<pdfrwt beam="1">  1       21 0.29839948E-03 0.27879300E+02</pdfrwt>
<pdfrwt beam="2">  1       21 0.71412374E-01 0.27879300E+02</pdfrwt>
<totfact> 0.34957004E+07</totfact>
</mgrwt>
</event>
<event>
 4    1  0.7499963E+004  0.2481964E+02  0.7546771E-02  0.1663606E+00
         21   -1    0    0  503  502  0.00000000000E+00  0.00000000000E+00  0.13557021267E+01  0.13557021267E+01  0.00000000000E+00 0. -1.
         21   -1    0    0  501  503 -0.00000000000E+00 -0.00000000000E+00 -0.45900865052E+03  0.45900865052E+03  0.00000000000E+00 0. -1.
          5    1    1    2  501    0 -0.19204075218E+02  0.15723170396E+02 -0.20573140576E+03  0.20722313073E+03  0.00000000000E+00 0.  1.
         -5    1    1    2    0  502  0.19204075218E+02 -0.15723170396E+02 -0.25192154264E+03  0.25314122192E+03  0.00000000000E+00 0. -1.
<mgrwt>
<rscale>  2 0.24819641E+02</rscale>
<asrwt>0</asrwt>
<pdfrwt beam="1">  1       21 0.20856930E-03 0.24819641E+02</pdfrwt>
<pdfrwt beam="2">  1       21 0.70616803E-01 0.24819641E+02</pdfrwt>
<totfact> 0.58866108E+07</totfact>
</mgrwt>
</event>
<event>
 4    1  0.7499963E+004  0.2186933E+02  0.7546771E-02  0.1710522E+00
         21   -1    0    0  503  502  0.00000000000E+00  0.00000000000E+00  0.91222408262E+02  0.91222408262E+02  0.00000000000E+00 0.  1.
         21   -1    0    0  501  503 -0.00000000000E+00 -0.00000000000E+00 -0.60142576386E+01  0.60142576386E+01  0.00000000000E+00 0.  1.
          1    1    1    2  501    0  0.10545238965E+02  0.19158957793E+02  0.25192268460E+02  0.33360427436E+02  0.00000000000E+00 0.  1.
         -1    1    1    2    0  502 -0.10545238965E+02 -0.19158957793E+02  0.60015882163E+02  0.63876238464E+02  0.00000000000E+00 0. -1.
<mgrwt>
<rscale>  2 0.21869333E+02</rscale>
<asrwt>0</asrwt>
<pdfrwt beam="1">  1       21 0.14034216E-01 0.21869333E+02</pdfrwt>
<pdfrwt beam="2">  1       21 0.92527047E-03 0.21869333E+02</pdfrwt>
<totfact> 0.12535211E+08</totfact>
</mgrwt>
</event>
<event>
 4    1  0.7499963E+004  0.2578668E+02  0.7546771E-02  0.1649953E+00
         21   -1    0    0  501  502  0.00000000000E+00  0.00000000000E+00  0.63316903047E+01  0.63316903047E+01  0.00000000000E+00 0.  1.
         21   -1    0    0  502  503 -0.00000000000E+00 -0.00000000000E+00 -0.10625151225E+03  0.10625151225E+03  0.00000000000E+00 0.  1.
          3    1    1    2  501    0 -0.82772198081E+01 -0.24422128249E+02 -0.56020772878E+02  0.61670736251E+02  0.00000000000E+00 0. -1.
         -3    1    1    2    0  503  0.82772198081E+01  0.24422128249E+02 -0.43899049063E+02  0.50912466299E+02  0.00000000000E+00 0.  1.
<mgrwt>
<rscale>  2 0.25786677E+02</rscale>
<asrwt>0</asrwt>
<pdfrwt beam="1">  1       21 0.97410623E-03 0.25786677E+02</pdfrwt>
<pdfrwt beam="2">  1       21 0.16346386E-01 0.25786677E+02</pdfrwt>
<totfact> 0.93613517E+07</totfact>
</mgrwt>
</event>
<event>
 4    1  0.7499963E+004  0.3331217E+02  0.7546771E-02  0.1564121E+00
         21   -1    0    0  503  502  0.00000000000E+00  0.00000000000E+00  0.74399025675E+02  0.74399025675E+02  0.00000000000E+00 0.  1.
         21   -1    0    0  501  503 -0.00000000000E+00 -0.00000000000E+00 -0.16452540926E+02  0.16452540926E+02  0.00000000000E+00 0.  1.
          5    1    1    2  501    0 -0.33110765042E+02 -0.36575638992E+01  0.15088906736E+02  0.36570146867E+02  0.00000000000E+00 0. -1.
         -5    1    1    2    0  502  0.33110765042E+02  0.36575638992E+01  0.42857578012E+02  0.54281419734E+02  0.00000000000E+00 0.  1.
<mgrwt>
<rscale>  2 0.33312168E+02</rscale>
<asrwt>0</asrwt>
<pdfrwt beam="1">  1       21 0.11446004E-01 0.33312168E+02</pdfrwt>
<pdfrwt beam="2">  1       21 0.25311602E-02 0.33312168E+02</pdfrwt>
<totfact> 0.42092285E+07</totfact>
</mgrwt>
</event>
<event>
 4    1  0.7499963E+004  0.3593301E+02  0.7546771E-02  0.1540468E+00
         21   -1    0    0  503  502  0.00000000000E+00  0.00000000000E+00  0.32679143627E+02  0.32679143627E+02  0.00000000000E+00 0.  1.
         21   -1    0    0  501  503 -0.00000000000E+00 -0.00000000000E+00 -0.39514943932E+02  0.39514943932E+02  0.00000000000E+00 0.  1.
          1    1    1    2  501    0 -0.33642267121E+02  0.12624547169E+02 -0.37845129109E+01  0.36131757032E+02  0.00000000000E+00 0.  1.
         -1    1    1    2    0  502  0.33642267121E+02 -0.12624547169E+02 -0.30512873939E+01  0.36062330527E+02  0.00000000000E+00 0. -1.
<mgrwt>
<rscale>  2 0.35933012E+02</rscale>
<asrwt>0</asrwt>
<pdfrwt beam="1">  1       21 0.50275606E-02 0.35933012E+02</pdfrwt>
<pdfrwt beam="2">  1       21 0.60792221E-02 0.35933012E+02</pdfrwt>
<totfact> 0.41038542E+07</totfact>
</mgrwt>
</event>
<event>
 4    1  0.7499963E+004  0.3507221E+02  0.7546771E-02  0.1547960E+00
         21   -1    0    0  503  502  0.00000000000E+00  0.00000000000E+00  0.12075424076E+03  0.12075424076E+03  0.00000000000E+00 0.  1.
         21   -1    0    0  501  503 -0.00000000000E+00 -0.00000000000E+00 -0.11101340585E+02  0.11101340585E+02  0.00000000000E+00 0.  1.
          3    1    1    2  501    0  0.30921810240E+02 -0.16549972275E+02  0.35900412527E+02  0.50188639655E+02  0.00000000000E+00 0. -1.
         -3    1    1    2    0  502 -0.30921810240E+02  0.16549972275E+02  0.73752487644E+02  0.81666941687E+02  0.00000000000E+00 0.  1.
<mgrwt>
<rscale>  2 0.35072210E+02</rscale>
<asrwt>0</asrwt>
<pdfrwt beam="1">  1       21 0.18577575E-01 0.35072210E+02</pdfrwt>
<pdfrwt beam="2">  1       21 0.17078986E-02 0.35072210E+02</pdfrwt>
<totfact> 0.34016571E+07</totfact>
</mgrwt>
</event>
<event>
 4    1  0.7499963E+004  0.2309096E+02  0.7546771E-02  0.1690040E+00
         21   -1    0    0  501  502  0.00000000000E+00  0.00000000000E+00  0.38219283029E+01  0.38219283029E+01  0.00000000000E+00 0. -1.
         21   -1    0    0  502  503 -0.00000000000E+00 -0.00000000000E+00 -0.14108575567E+03  0.14108575567E+03  0.00000000000E+00 0. -1.
          5    1    1    2  501    0  0.26100406234E+01 -0.22942974816E+02 -0.60971755973E+02  0.65197756341E+02  0.00000000000E+00 0. -1.
         -5    1    1    2    0  503 -0.26100406234E+01  0.22942974816E+02 -0.76292071390E+02  0.79709927628E+02  0.00000000000E+00 0.  1.
<mgrwt>
<rscale>  2 0.23090959E+02</rscale>
<asrwt>0</asrwt>
<pdfrwt beam="1">  1       21 0.58798903E-03 0.23090959E+02</pdfrwt>
<pdfrwt beam="2">  1       21 0.21705499E-01 0.23090959E+02</pdfrwt>
<totfact> 0.11794847E+08</totfact>
</mgrwt>
</event>
<event>
 4    1  0.7499963E+004  0.2400561E+02  0.7546771E-02  0.1675710E+00
         21   -1    0    0  503  502  0.00000000000E+00  0.00000000000E+00  0.20571418987E+03  0.20571418987E+03  0.00000000000E+00 0.  1.
         21   -1    0    0  501  503 -0.00000000000E+00 -0.00000000000E+00 -0.28023230890E+01  0.28023230890E+01  0.00000000000E+00 0.  1.
          4    1    1    2  501    0 -0.38408223349E+01  0.23696354102E+02  0.10343875103E+03  0.10618777862E+03  0.00000000000E+00 0. -1.
         -4    1    1    2    0  502  0.38408223349E+01 -0.23696354102E+02  0.99473115756E+02  0.10232873434E+03  0.00000000000E+00 0.  1.
<mgrwt>
<rscale>  2 0.24005606E+02</rscale>
<asrwt>0</asrwt>
<pdfrwt beam="1">  1       21 0.31648325E-01 0.24005606E+02</pdfrwt>
<pdfrwt beam="2">  1       21 0.43112679E-03 0.24005606E+02</pdfrwt>
<totfact> 0.95792885E+07</totfact>
</mgrwt>
</event>
<event>
 4    1  0.7499963E+004  0.2453594E+02  0.7546771E-02  0.1667758E+00
         21   -1    0    0  501  502  0.00000000000E+00  0.00000000000E+00  0.10511379207E+03  0.10511379207E+03  0.00000000000E+00 0.  1.
         21   -1    0    0  502  503 -0.00000000000E+00 -0.00000000000E+00 -0.13328552442E+02  0.13328552442E+02  0.00000000000E+00 0.  1.
          1    1    1    2  501    0  0.23614838466E+02 -0.66597219716E+01  0.11697522418E+01  0.24563811040E+02  0.00000000000E+00 0.  1.
         -1    1    1    2    0  503 -0.23614838466E+02  0.66597219716E+01  0.90615487388E+02  0.93878533474E+02  0.00000000000E+00 0. -1.
<mgrwt>
<rscale>  2 0.24535943E+02</rscale>
<asrwt>0</asrwt>
<pdfrwt beam="1">  1       21 0.16171352E-01 0.24535943E+02</pdfrwt>
<pdfrwt beam="2">  1       21 0.20505466E-02 0.24535943E+02</pdfrwt>
<totfact> 0.30348420E+07</totfact>
</mgrwt>
</event>
<event>
 4    1  0.7499963E+004  0.2645003E+02  0.7546771E-02  0.1641008E+00
         21   -1    0    0  503  502  0.00000000000E+00  0.00000000000E+00  0.26044673125E+01  0.26044673125E+01  0.00000000000E+00 0.  1.
         21   -1    0    0  501  503 -0.00000000000E+00 -0.00000000000E+00 -0.29239696640E+03  0.29239696640E+03  0.00000000000E+00 0.  1.
          4    1    1    2  501    0 -0.81743858905E+01 -0.25155191638E+02 -0.10283200193E+03  0.10617921111E+03  0.00000000000E+00 0.  1.
         -4    1    1    2    0  502  0.81743858905E+01  0.25155191638E+02 -0.18696049717E+03  0.18882222261E+03  0.00000000000E+00 0. -1.
<mgrwt>
<rscale>  2 0.26450033E+02</rscale>
<asrwt>0</asrwt>
<pdfrwt beam="1">  1       21 0.40068737E-03 0.26450033E+02</pdfrwt>
<pdfrwt beam="2">  1       21 0.44984138E-01 0.26450033E+02</pdfrwt>
<totfact> 0.56417952E+07</totfact>
</mgrwt>
</event>
<event>
 4    1  0.7499963E+004  0.2245288E+02  0.7546771E-02  0.1700535E+00
         21   -1    0    0  501  502  0.00000000000E+00  0.00000000000E+00  0.27937462008E+01  0.27937462008E+01  0.00000000000E+00 0.  1.
         21   -1    0    0  502  503 -0.00000000000E+00 -0.00000000000E+00 -0.33230481940E+03  0.33230481940E+03  0.00000000000E+00 0.  1.
          1    1    1    2  501    0  0.11124099488E+02 -0.19503488925E+02 -0.51492433174E+02  0.56174748276E+02  0.00000000000E+00 0.  1.
         -1    1    1    2    0  503 -0.11124099488E+02  0.19503488925E+02 -0.27801864003E+03  0.27892381733E+03  0.00000000000E+00 0. -1.
<mgrwt>
<rscale>  2 0.22452877E+02</rscale>
<asrwt>0</asrwt>
<pdfrwt beam="1">  1       21 0.42980728E-03 0.22452877E+02</pdfrwt>
<pdfrwt beam="2">  1       21 0.51123798E-01 0.22452877E+02</pdfrwt>
<totfact> 0.38278527E+07</totfact>
</mgrwt>
</event>
<event>
 4    1  0.7499963E+004  0.2239069E+02  0.7546771E-02  0.1701581E+00
         21   -1    0    0  501  502  0.00000000000E+00  0.00000000000E+00  0.98231376129E+00  0.98231376129E+00  0.00000000000E+00 0.  1.
         21   -1    0    0  502  503 -0.00000000000E+00 -0.00000000000E+00 -0.74625077112E+03  0.74625077112E+03  0.00000000000E+00 0.  1.
          5    1    1    2  501    0  0.61357158151E+01  0.21533606555E+02 -0.58268786710E+03  0.58311790719E+03  0.00000000000E+00 0. -1.
         -5    1    1    2    0  503 -0.61357158151E+01 -0.21533606555E+02 -0.16258059026E+03  0.16411517769E+03  0.00000000000E+00 0.  1.
<mgrwt>
<rscale>  2 0.22390695E+02</rscale>
<asrwt>0</asrwt>
<pdfrwt beam="1">  1       21 0.15112525E-03 0.22390695E+02</pdfrwt>
<pdfrwt beam="2">  1       21 0.11480777E+00 0.22390695E+02</pdfrwt>
<totfact> 0.32261159E+07</totfact>
</mgrwt>
</event>
<event>
 4    1  0.7499963E+004  0.2121548E+02  0.7546771E-02  0.1722184E+00
         21   -1    0    0  503  502  0.00000000000E+00  0.00000000000E+00  0.65981581460E+03  0.65981581460E+03  0.00000000000E+00 0.  1.
         21   -1    0    0  501  503 -0.00000000000E+00 -0.00000000000E+00 -0.70224568950E+00  0.70224568950E+00  0.00000000000E+00 0.  1.
          3    1    1    2  501    0 -0.12715463874E+02 -0.16982739240E+02  0.27369550062E+03  0.27451652685E+03  0.00000000000E+00 0.  1.
         -3    1    1    2    0  502  0.12715463874E+02  0.16982739240E+02  0.38541806829E+03  0.38600153344E+03  0.00000000000E+00 0. -1.
<mgrwt>
<rscale>  2 0.21215477E+02</rscale>
<asrwt>0</asrwt>
<pdfrwt beam="1">  1       21 0.10150963E+00 0.21215477E+02</pdfrwt>
<pdfrwt beam="2">  1       21 0.10803833E-03 0.21215477E+02</pdfrwt>
<totfact> 0.67612185E+07</totfact>
</mgrwt>
</event>
<event>
 4    1  0.7499963E+004  0.2150195E+02  0.7546771E-02  0.1717011E+00
         21   -1    0    0  501  502  0.00000000000E+00  0.00000000000E+00  0.17323872558E+03  0.17323872558E+03  0.00000000000E+00 0. -1.
         21   -1    0    0  502  503 -0.00000000000E+00 -0.00000000000E+00 -0.28306512611E+01  0.28306512611E+01  0.00000000000E+00 0. -1.
          4    1    1    2  501    0  0.19391981122E+02  0.92889748307E+01  0.10625691548E+03  0.10841063635E+03  0.00000000000E+00 0.  1.
         -4    1    1    2    0  503 -0.19391981122E+02 -0.92889748307E+01  0.64151158838E+02  0.67658740496E+02  0.00000000000E+00 0. -1.
<mgrwt>
<rscale>  2 0.21501953E+02</rscale>
<asrwt>0</asrwt>
<pdfrwt beam="1">  1       21 0.26652103E-01 0.21501953E+02</pdfrwt>
<pdfrwt beam="2">  1       21 0.43548495E-03 0.21501953E+02</pdfrwt>
<totfact> 0.12501961E+08</totfact>
</mgrwt>
</event>
<event>
 4    1  0.7499963E+004  0.4888665E+02  0.7546771E-02  0.1451441E+00
         21   -1    0    0  503  502  0.00000000000E+00  0.00000000000E+00  0.18092720850E+03  0.18092720850E+03  0.00000000000E+00 0.  1.
         21   -1    0    0  501  503 -0.00000000000E+00 -0.00000000000E+00 -0.15428285594E+02  0.15428285594E+02  0.00000000000E+00 0.  1.
          4    1    1    2  501    0  0.29041442760E+02 -0.39325552742E+02  0.11998355746E+03  0.12956063660E+03  0.00000000000E+00 0. -1.
         -4    1    1    2    0  502 -0.29041442760E+02  0.39325552742E+02  0.45515365454E+02  0.66794857500E+02  0.00000000000E+00 0.  1.
<mgrwt>
<rscale>  2 0.48886649E+02</rscale>
<asrwt>0</asrwt>
<pdfrwt beam="1">  1       21 0.27834954E-01 0.48886649E+02</pdfrwt>
<pdfrwt beam="2">  1       21 0.23735825E-02 0.48886649E+02</pdfrwt>
<totfact> 0.10281853E+07</totfact>
</mgrwt>
</event>
<event>
 4    1  0.7499963E+004  0.2747685E+02  0.7546771E-02  0.1627779E+00
         21   -1    0    0  501  502  0.00000000000E+00  0.00000000000E+00  0.95993608538E+02  0.95993608538E+02  0.00000000000E+00 0. -1.
         21   -1    0    0  502  503 -0.00000000000E+00 -0.00000000000E+00 -0.83004461675E+01  0.83004461675E+01  0.00000000000E+00 0. -1.
          4    1    1    2  501    0  0.23055840147E+02  0.14946755323E+02  0.31900901837E+02  0.42102788478E+02  0.00000000000E+00 0.  1.
         -4    1    1    2    0  503 -0.23055840147E+02 -0.14946755323E+02  0.55792260533E+02  0.62191266228E+02  0.00000000000E+00 0. -1.
<mgrwt>
<rscale>  2 0.27476850E+02</rscale>
<asrwt>0</asrwt>
<pdfrwt beam="1">  1       21 0.14768247E-01 0.27476850E+02</pdfrwt>
<pdfrwt beam="2">  1       21 0.12769918E-02 0.27476850E+02</pdfrwt>
<totfact> 0.75146103E+07</totfact>
</mgrwt>
</event>
<event>
 4    1  0.7499963E+004  0.2699086E+02  0.7546771E-02  0.1633950E+00
         21   -1    0    0  503  502  0.00000000000E+00  0.00000000000E+00  0.11465971449E+01  0.11465971449E+01  0.00000000000E+00 0. -1.
         21   -1    0    0  501  503 -0.00000000000E+00 -0.00000000000E+00 -0.89929865151E+03  0.89929865151E+03  0.00000000000E+00 0. -1.
          3    1    1    2  501    0  0.15186301640E+02  0.22313290009E+02 -0.20516947695E+03  0.20693723914E+03  0.00000000000E+00 0. -1.
         -3    1    1    2    0  502 -0.15186301640E+02 -0.22313290009E+02 -0.69298257741E+03  0.69350800952E+03  0.00000000000E+00 0.  1.
<mgrwt>
<rscale>  2 0.26990863E+02</rscale>
<asrwt>0</asrwt>
<pdfrwt beam="1">  1       21 0.17640057E-03 0.26990863E+02</pdfrwt>
<pdfrwt beam="2">  1       21 0.13835284E+00 0.26990863E+02</pdfrwt>
<totfact> 0.17391065E+07</totfact>
</mgrwt>
</event>
<event>
 4    1  0.7499963E+004  0.2367162E+02  0.7546771E-02  0.1680849E+00
         21   -1    0    0  501  502  0.00000000000E+00  0.00000000000E+00  0.34483332340E+01  0.34483332340E+01  0.00000000000E+00 0.  1.
         21   -1    0    0  502  503 -0.00000000000E+00 -0.00000000000E+00 -0.17668783308E+03  0.17668783308E+03  0.00000000000E+00 0.  1.
          1    1    1    2  501    0 -0.23656268934E+02  0.85236232713E+00 -0.11214462723E+03  0.11461571881E+03  0.00000000000E+00 0. -1.
         -1    1    1    2    0  503  0.23656268934E+02 -0.85236232713E+00 -0.61094872620E+02  0.65520447509E+02  0.00000000000E+00 0.  1.
<mgrwt>
<rscale>  2 0.23671620E+02</rscale>
<asrwt>0</asrwt>
<pdfrwt beam="1">  1       21 0.53051266E-03 0.23671620E+02</pdfrwt>
<pdfrwt beam="2">  1       21 0.27182751E-01 0.23671620E+02</pdfrwt>
<totfact> 0.92657669E+07</totfact>
</mgrwt>
</event>
<event>
 4    1  0.7499963E+004  0.2282375E+02  0.7546771E-02  0.1694383E+00
         21   -1    0    0  501  502  0.00000000000E+00  0.00000000000E+00  0.11900977260E+02  0.11900977260E+02  0.00000000000E+00 0.  1.
         21   -1    0    0  502  503 -0.00000000000E+00 -0.00000000000E+00 -0.44920535531E+02  0.44920535531E+02  0.00000000000E+00 0.  1.
          1    1    1    2  501    0 -0.22520367805E+02  0.37089881835E+01 -0.21053672410E+02  0.31051258934E+02  0.00000000000E+00 0. -1.
         -1    1    1    2    0  503  0.22520367805E+02 -0.37089881835E+01 -0.11965885861E+02  0.25770253857E+02  0.00000000000E+00 0.  1.
<mgrwt>
<rscale>  2 0.22823750E+02</rscale>
<asrwt>0</asrwt>
<pdfrwt beam="1">  1       21 0.18309196E-02 0.22823750E+02</pdfrwt>
<pdfrwt beam="2">  1       21 0.69108515E-02 0.22823750E+02</pdfrwt>
<totfact> 0.14574477E+08</totfact>
</mgrwt>
</event>
<event>
 4    1  0.7499963E+004  0.2297557E+02  0.7546771E-02  0.1691906E+00
         21   -1    0    0  503  502  0.00000000000E+00  0.00000000000E+00  0.16266810682E+03  0.16266810682E+03  0.00000000000E+00 0. -1.
         21   -1    0    0  501  503 -0.00000000000E+00 -0.00000000000E+00 -0.39682205284E+01  0.39682205284E+01  0.00000000000E+00 0. -1.
          1    1    1    2  501    0 -0.12107082772E+02 -0.19526790013E+02  0.43783360724E+02  0.49445522120E+02  0.00000000000E+00 0.  1.
         -1    1    1    2    0  502  0.12107082772E+02  0.19526790013E+02  0.11491652557E+03  0.11719080523E+03  0.00000000000E+00 0. -1.
<mgrwt>
<rscale>  2 0.22975574E+02</rscale>
<asrwt>0</asrwt>
<pdfrwt beam="1">  1       21 0.25025857E-01 0.22975574E+02</pdfrwt>
<pdfrwt beam="2">  1       21 0.61049559E-03 0.22975574E+02</pdfrwt>
<totfact> 0.86590624E+07</totfact>
</mgrwt>
</event>
<event>
 4    1  0.7499963E+004  0.2392693E+02  0.7546771E-02  0.1676911E+00
         21   -1    0    0  501  502  0.00000000000E+00  0.00000000000E+00  0.12953097399E+02  0.12953097399E+02  0.00000000000E+00 0.  1.
         21   -1    0    0  502  503 -0.00000000000E+00 -0.00000000000E+00 -0.62477890892E+02  0.62477890892E+02  0.00000000000E+00 0.  1.
          4    1    1    2  501    0 -0.23169874677E+02 -0.59711899339E+01 -0.45163139835E+02  0.51109758379E+02  0.00000000000E+00 0.  1.
         -4    1    1    2    0  503  0.23169874677E+02  0.59711899339E+01 -0.43616536574E+01  0.24321229912E+02  0.00000000000E+00 0. -1.
<mgrwt>
<rscale>  2 0.23926935E+02</rscale>
<asrwt>0</asrwt>
<pdfrwt beam="1">  1       21 0.19927842E-02 0.23926935E+02</pdfrwt>
<pdfrwt beam="2">  1       21 0.96119832E-02 0.23926935E+02</pdfrwt>
<totfact> 0.75659324E+07</totfact>
</mgrwt>
</event>
<event>
 4    1  0.7499963E+004  0.2446037E+02  0.7546771E-02  0.1668876E+00
         21   -1    0    0  503  502  0.00000000000E+00  0.00000000000E+00  0.10151779870E+01  0.10151779870E+01  0.00000000000E+00 0.  1.
         21   -1    0    0  501  503 -0.00000000000E+00 -0.00000000000E+00 -0.76932273414E+03  0.76932273414E+03  0.00000000000E+00 0.  1.
          2    1    1    2  501    0  0.53786300313E+01 -0.23861686152E+02 -0.19786657563E+03  0.19937274508E+03  0.00000000000E+00 0.  1.
         -2    1    1    2    0  502 -0.53786300313E+01  0.23861686152E+02 -0.57044098052E+03  0.57096516705E+03  0.00000000000E+00 0. -1.
<mgrwt>
<rscale>  2 0.24460371E+02</rscale>
<asrwt>0</asrwt>
<pdfrwt beam="1">  1       21 0.15618101E-03 0.24460371E+02</pdfrwt>
<pdfrwt beam="2">  1       21 0.11835751E+00 0.24460371E+02</pdfrwt>
<totfact> 0.29235176E+07</totfact>
</mgrwt>
</event>
<event>
 4    1  0.7499963E+004  0.2044616E+02  0.7546771E-02  0.1736598E+00
         21   -1    0    0  501  502  0.00000000000E+00  0.00000000000E+00  0.26282096008E+03  0.26282096008E+03  0.00000000000E+00 0. -1.
         21   -1    0    0  502  503 -0.00000000000E+00 -0.00000000000E+00 -0.18555458168E+01  0.18555458168E+01  0.00000000000E+00 0. -1.
          1    1    1    2  501    0 -0.20013676088E+02  0.41830902148E+01  0.80476901006E+02  0.83033590009E+02  0.00000000000E+00 0. -1.
         -1    1    1    2    0  503  0.20013676088E+02 -0.41830902148E+01  0.18048851326E+03  0.18164291589E+03  0.00000000000E+00 0.  1.
<mgrwt>
<rscale>  2 0.20446160E+02</rscale>
<asrwt>0</asrwt>
<pdfrwt beam="1">  1       21 0.40433964E-01 0.20446160E+02</pdfrwt>
<pdfrwt beam="2">  1       21 0.28546880E-03 0.20446160E+02</pdfrwt>
<totfact> 0.10634693E+08</totfact>
</mgrwt>
</event>
<event>
 4    1  0.7499963E+004  0.3645081E+02  0.7546771E-02  0.1536082E+00
         21   -1    0    0  501  502  0.00000000000E+00  0.00000000000E+00  0.11727727976E+04  0.11727727976E+04  0.00000000000E+00 0.  1.
         21   -1    0    0  502  503 -0.00000000000E+00 -0.00000000000E+00 -0.11373072721E+01  0.11373072721E+01  0.00000000000E+00 0.  1.
          2    1    1    2  501    0 -0.36325004320E+02  0.30258359953E+01  0.62225956559E+03  0.62332626175E+03  0.00000000000E+00 0. -1.
         -2    1    1    2    0  503  0.36325004320E+02 -0.30258359953E+01  0.54937592470E+03  0.55058384308E+03  0.00000000000E+00 0.  1.
<mgrwt>
<rscale>  2 0.36450811E+02</rscale>
<asrwt>0</asrwt>
<pdfrwt beam="1">  1       21 0.18042562E+00 0.36450811E+02</pdfrwt>
<pdfrwt beam="2">  1       21 0.17497129E-03 0.36450811E+02</pdfrwt>
<totfact> 0.95054084E+06</totfact>
</mgrwt>
</event>
<event>
 4    1  0.7499963E+004  0.2808419E+02  0.7546771E-02  0.1620285E+00
         21   -1    0    0  501  502  0.00000000000E+00  0.00000000000E+00  0.64672712410E+01  0.64672712410E+01  0.00000000000E+00 0. -1.
         21   -1    0    0  502  503 -0.00000000000E+00 -0.00000000000E+00 -0.12366132040E+03  0.12366132040E+03  0.00000000000E+00 0. -1.
          4    1    1    2  501    0 -0.23919697503E+02  0.14716306469E+02 -0.50956080272E+02  0.58182847312E+02  0.00000000000E+00 0.  1.
         -4    1    1    2    0  503  0.23919697503E+02 -0.14716306469E+02 -0.66237968888E+02  0.71945744330E+02  0.00000000000E+00 0. -1.
<mgrwt>
<rscale>  2 0.28084188E+02</rscale>
<asrwt>0</asrwt>
<pdfrwt beam="1">  1       21 0.99496479E-03 0.28084188E+02</pdfrwt>
<pdfrwt beam="2">  1       21 0.19024819E-01 0.28084188E+02</pdfrwt>
<totfact> 0.71146983E+07</totfact>
</mgrwt>
</event>
<event>
 4    1  0.7499963E+004  0.3402097E+02  0.7546771E-02  0.1557470E+00
         21   -1    0    0  501  502  0.00000000000E+00  0.00000000000E+00  0.36539437131E+02  0.36539437131E+02  0.00000000000E+00 0.  1.
         21   -1    0    0  502  503 -0.00000000000E+00 -0.00000000000E+00 -0.32775070490E+02  0.32775070490E+02  0.00000000000E+00 0.  1.
          2    1    1    2  501    0 -0.33865869860E+02 -0.32448761389E+01 -0.44640795837E+01  0.34312597819E+02  0.00000000000E+00 0. -1.
         -2    1    1    2    0  503  0.33865869860E+02  0.32448761389E+01  0.82284462246E+01  0.35001909803E+02  0.00000000000E+00 0.  1.
<mgrwt>
<rscale>  2 0.34020969E+02</rscale>
<asrwt>0</asrwt>
<pdfrwt beam="1">  1       21 0.56214518E-02 0.34020969E+02</pdfrwt>
<pdfrwt beam="2">  1       21 0.50423186E-02 0.34020969E+02</pdfrwt>
<totfact> 0.45887196E+07</totfact>
</mgrwt>
</event>
<event>
 4    1  0.7499963E+004  0.2122936E+02  0.7546771E-02  0.1721931E+00
         21   -1    0    0  501  502  0.00000000000E+00  0.00000000000E+00  0.42405700484E+01  0.42405700484E+01  0.00000000000E+00 0.  1.
         21   -1    0    0  502  503 -0.00000000000E+00 -0.00000000000E+00 -0.10666884516E+03  0.10666884516E+03  0.00000000000E+00 0.  1.
          3    1    1    2  501    0 -0.12312680418E+02  0.17294032784E+02 -0.47863816596E+02  0.52360582580E+02  0.00000000000E+00 0.  1.
         -3    1    1    2    0  503  0.12312680418E+02 -0.17294032784E+02 -0.54564458517E+02  0.58548832630E+02  0.00000000000E+00 0. -1.
<mgrwt>
<rscale>  2 0.21229359E+02</rscale>
<asrwt>0</asrwt>
<pdfrwt beam="1">  1       21 0.65239541E-03 0.21229359E+02</pdfrwt>
<pdfrwt beam="2">  1       21 0.16410591E-01 0.21229359E+02</pdfrwt>
<totfact> 0.16021160E+08</totfact>
</mgrwt>
</event>
<event>
 4    1  0.7499963E+004  0.2642828E+02  0.7546771E-02  0.1641296E+00
         21   -1    0    0  501  502  0.00000000000E+00  0.00000000000E+00  0.12920818807E+02  0.12920818807E+02  0.00000000000E+00 0.  1.
         21   -1    0    0  502  503 -0.00000000000E+00 -0.00000000000E+00 -0.54191494490E+02  0.54191494490E+02  0.00000000000E+00 0.  1.
          3    1    1    2  501    0 -0.20097875885E+02 -0.17161860334E+02 -0.18960446427E+02  0.32526183206E+02  0.00000000000E+00 0.  1.
         -3    1    1    2    0  503  0.20097875885E+02  0.17161860334E+02 -0.22310229256E+02  0.34586130091E+02  0.00000000000E+00 0. -1.
<mgrwt>
<rscale>  2 0.26428282E+02</rscale>
<asrwt>0</asrwt>
<pdfrwt beam="1">  1       21 0.19878183E-02 0.26428282E+02</pdfrwt>
<pdfrwt beam="2">  1       21 0.83371530E-02 0.26428282E+02</pdfrwt>
<totfact> 0.98563785E+07</totfact>
</mgrwt>
</event>
<event>
 4    1  0.7499963E+004  0.2105487E+02  0.7546771E-02  0.1725129E+00
         21   -1    0    0  501  502  0.00000000000E+00  0.00000000000E+00  0.59658379960E+01  0.59658379960E+01  0.00000000000E+00 0. -1.
         21   -1    0    0  502  503 -0.00000000000E+00 -0.00000000000E+00 -0.11318547295E+03  0.11318547295E+03  0.00000000000E+00 0. -1.
          3    1    1    2  501    0 -0.20561065815E+02 -0.45332189125E+01 -0.88525807456E+02  0.90995198153E+02  0.00000000000E+00 0.  1.
         -3    1    1    2    0  503  0.20561065815E+02  0.45332189125E+01 -0.18693827501E+02  0.28156112797E+02  0.00000000000E+00 0. -1.
<mgrwt>
<rscale>  2 0.21054869E+02</rscale>
<asrwt>0</asrwt>
<pdfrwt beam="1">  1       21 0.91782129E-03 0.21054869E+02</pdfrwt>
<pdfrwt beam="2">  1       21 0.17413149E-01 0.21054869E+02</pdfrwt>
<totfact> 0.86914672E+07</totfact>
</mgrwt>
</event>
<event>
 4    1  0.7499963E+004  0.6952413E+02  0.7546771E-02  0.1361719E+00
         21   -1    0    0  501  502  0.00000000000E+00  0.00000000000E+00  0.57505572138E+03  0.57505572138E+03  0.00000000000E+00 0. -1.
         21   -1    0    0  502  503 -0.00000000000E+00 -0.00000000000E+00 -0.84706138044E+01  0.84706138044E+01  0.00000000000E+00 0. -1.
          5    1    1    2  501    0  0.45780660732E+02 -0.52323373829E+02  0.30888214226E+03  0.31660982637E+03  0.00000000000E+00 0.  1.
         -5    1    1    2    0  503 -0.45780660732E+02  0.52323373829E+02  0.25770296531E+03  0.26691650881E+03  0.00000000000E+00 0. -1.
<mgrwt>
<rscale>  2 0.69524128E+02</rscale>
<asrwt>0</asrwt>
<pdfrwt beam="1">  1       21 0.88470081E-01 0.69524128E+02</pdfrwt>
<pdfrwt beam="2">  1       21 0.13031718E-02 0.69524128E+02</pdfrwt>
<totfact> 0.26226680E+06</totfact>
</mgrwt>
</event>
<event>
 4    1  0.7499963E+004  0.2135751E+02  0.7546771E-02  0.1719606E+00
         21   -1    0    0  501  502  0.00000000000E+00  0.00000000000E+00  0.83491423639E+01  0.83491423639E+01  0.00000000000E+00 0.  1.
         21   -1    0    0  502  503 -0.00000000000E+00 -0.00000000000E+00 -0.56383230377E+02  0.56383230377E+02  0.00000000000E+00 0.  1.
          1    1    1    2  501    0  0.60521375294E+01 -0.20482064734E+02 -0.18315466177E+02  0.28135380675E+02  0.00000000000E+00 0. -1.
         -1    1    1    2    0  503 -0.60521375294E+01  0.20482064734E+02 -0.29718621837E+02  0.36596992066E+02  0.00000000000E+00 0.  1.
<mgrwt>
<rscale>  2 0.21357513E+02</rscale>
<asrwt>0</asrwt>
<pdfrwt beam="1">  1       21 0.12844834E-02 0.21357513E+02</pdfrwt>
<pdfrwt beam="2">  1       21 0.86743433E-02 0.21357513E+02</pdfrwt>
<totfact> 0.16908332E+08</totfact>
</mgrwt>
</event>
<event>
 4    1  0.7499963E+004  0.2903911E+02  0.7546771E-02  0.1608960E+00
         21   -1    0    0  503  502  0.00000000000E+00  0.00000000000E+00  0.51738783512E+01  0.51738783512E+01  0.00000000000E+00 0.  1.
         21   -1    0    0  501  503 -0.00000000000E+00 -0.00000000000E+00 -0.16382233015E+03  0.16382233015E+03  0.00000000000E+00 0.  1.
          3    1    1    2  501    0 -0.19528763963E+02 -0.21491791239E+02 -0.73286818018E+02  0.78830371100E+02  0.00000000000E+00 0. -1.
         -3    1    1    2    0  502  0.19528763963E+02  0.21491791239E+02 -0.85361633784E+02  0.90165837404E+02  0.00000000000E+00 0.  1.
<mgrwt>
<rscale>  2 0.29039107E+02</rscale>
<asrwt>0</asrwt>
<pdfrwt beam="1">  1       21 0.79598144E-03 0.29039107E+02</pdfrwt>
<pdfrwt beam="2">  1       21 0.25203431E-01 0.29039107E+02</pdfrwt>
<totfact> 0.60921051E+07</totfact>
</mgrwt>
</event>
<event>
 4    1  0.7499963E+004  0.2134468E+02  0.7546771E-02  0.1719838E+00
         21   -1    0    0  503  502  0.00000000000E+00  0.00000000000E+00  0.30097373706E+03  0.30097373706E+03  0.00000000000E+00 0.  1.
         21   -1    0    0  501  503 -0.00000000000E+00 -0.00000000000E+00 -0.15683112088E+01  0.15683112088E+01  0.00000000000E+00 0.  1.
          1    1    1    2  501    0 -0.20583167965E+02  0.56505416437E+01  0.12148454462E+03  0.12334540934E+03  0.00000000000E+00 0.  1.
         -1    1    1    2    0  502  0.20583167965E+02 -0.56505416437E+01  0.17792088123E+03  0.17919663893E+03  0.00000000000E+00 0. -1.
<mgrwt>
<rscale>  2 0.21344681E+02</rscale>
<asrwt>0</asrwt>
<pdfrwt beam="1">  1       21 0.46303606E-01 0.21344681E+02</pdfrwt>
<pdfrwt beam="2">  1       21 0.24127889E-03 0.21344681E+02</pdfrwt>
<totfact> 0.10615524E+08</totfact>
</mgrwt>
</event>
<event>
 4    1  0.7499963E+004  0.2338509E+02  0.7546771E-02  0.1685343E+00
         21   -1    0    0  501  502  0.00000000000E+00  0.00000000000E+00  0.43501523512E+01  0.43501523512E+01  0.00000000000E+00 0.  1.
         21   -1    0    0  502  503 -0.00000000000E+00 -0.00000000000E+00 -0.12815483377E+03  0.12815483377E+03  0.00000000000E+00 0.  1.
          5    1    1    2  501    0  0.19169883111E+02  0.13393203679E+02 -0.71051137948E+02  0.74800578387E+02  0.00000000000E+00 0.  1.
         -5    1    1    2    0  503 -0.19169883111E+02 -0.13393203679E+02 -0.52753543468E+02  0.57704407732E+02  0.00000000000E+00 0. -1.
<mgrwt>
<rscale>  2 0.23385088E+02</rscale>
<asrwt>0</asrwt>
<pdfrwt beam="1">  1       21 0.66925423E-03 0.23385088E+02</pdfrwt>
<pdfrwt beam="2">  1       21 0.19716128E-01 0.23385088E+02</pdfrwt>
<totfact> 0.11559025E+08</totfact>
</mgrwt>
</event>
<event>
 4    1  0.7499963E+004  0.3632622E+02  0.7546771E-02  0.1537129E+00
         21   -1    0    0  501  502  0.00000000000E+00  0.00000000000E+00  0.11807656669E+03  0.11807656669E+03  0.00000000000E+00 0. -1.
         21   -1    0    0  502  503 -0.00000000000E+00 -0.00000000000E+00 -0.11176552119E+02  0.11176552119E+02  0.00000000000E+00 0. -1.
          5    1    1    2  501    0  0.99931809137E+01 -0.34924645758E+02  0.53996468249E+02  0.65078515114E+02  0.00000000000E+00 0. -1.
         -5    1    1    2    0  503 -0.99931809137E+01  0.34924645758E+02  0.52903546327E+02  0.64174603700E+02  0.00000000000E+00 0.  1.
<mgrwt>
<rscale>  2 0.36326224E+02</rscale>
<asrwt>0</asrwt>
<pdfrwt beam="1">  1       21 0.18165625E-01 0.36326224E+02</pdfrwt>
<pdfrwt beam="2">  1       21 0.17194696E-02 0.36326224E+02</pdfrwt>
<totfact> 0.35246676E+07</totfact>
</mgrwt>
</event>
<event>
 4    1  0.7499963E+004  0.2657247E+02  0.7546771E-02  0.1639392E+00
         21   -1    0    0  501  502  0.00000000000E+00  0.00000000000E+00  0.57005948991E+02  0.57005948991E+02  0.00000000000E+00 0.  1.
         21   -1    0    0  502  503 -0.00000000000E+00 -0.00000000000E+00 -0.12988986268E+02  0.12988986268E+02  0.00000000000E+00 0.  1.
          2    1    1    2  501    0 -0.22270990572E+02  0.14494802008E+02  0.29546763516E+02  0.39737986116E+02  0.00000000000E+00 0. -1.
         -2    1    1    2    0  503  0.22270990572E+02 -0.14494802008E+02  0.14470199208E+02  0.30256949143E+02  0.00000000000E+00 0.  1.
<mgrwt>
<rscale>  2 0.26572473E+02</rscale>
<asrwt>0</asrwt>
<pdfrwt beam="1">  1       21 0.87701459E-02 0.26572473E+02</pdfrwt>
<pdfrwt beam="2">  1       21 0.19983056E-02 0.26572473E+02</pdfrwt>
<totfact> 0.90070581E+07</totfact>
</mgrwt>
</event>
<event>
 4    1  0.7499963E+004  0.2312342E+02  0.7546771E-02  0.1689517E+00
         21   -1    0    0  503  502  0.00000000000E+00  0.00000000000E+00  0.26630279910E+02  0.26630279910E+02  0.00000000000E+00 0.  1.
         21   -1    0    0  501  503 -0.00000000000E+00 -0.00000000000E+00 -0.22310443964E+02  0.22310443964E+02  0.00000000000E+00 0.  1.
          5    1    1    2  501    0 -0.18314871940E+02 -0.14115885861E+02 -0.55800651331E+01  0.23787179209E+02  0.00000000000E+00 0.  1.
         -5    1    1    2    0  502  0.18314871940E+02  0.14115885861E+02  0.98999010785E+01  0.25153544665E+02  0.00000000000E+00 0. -1.
<mgrwt>
<rscale>  2 0.23123425E+02</rscale>
<asrwt>0</asrwt>
<pdfrwt beam="1">  1       21 0.40969661E-02 0.23123425E+02</pdfrwt>
<pdfrwt beam="2">  1       21 0.34323760E-02 0.23123425E+02</pdfrwt>
<totfact> 0.12756400E+08</totfact>
</mgrwt>
</event>
<event>
 4    1  0.7499963E+004  0.3250579E+02  0.7546771E-02  0.1571935E+00
         21   -1    0    0  503  502  0.00000000000E+00  0.00000000000E+00  0.20971169289E+02  0.20971169289E+02  0.00000000000E+00 0.  1.
         21   -1    0    0  501  503 -0.00000000000E+00 -0.00000000000E+00 -0.52322169531E+02  0.52322169531E+02  0.00000000000E+00 0.  1.
          4    1    1    2  501    0  0.31798699317E+02 -0.67430697659E+01 -0.86235693871E+01  0.33630227729E+02  0.00000000000E+00 0. -1.
         -4    1    1    2    0  502 -0.31798699317E+02  0.67430697659E+01 -0.22727430854E+02  0.39663111091E+02  0.00000000000E+00 0.  1.
<mgrwt>
<rscale>  2 0.32505788E+02</rscale>
<asrwt>0</asrwt>
<pdfrwt beam="1">  1       21 0.32263338E-02 0.32505788E+02</pdfrwt>
<pdfrwt beam="2">  1       21 0.80495644E-02 0.32505788E+02</pdfrwt>
<totfact> 0.51506159E+07</totfact>
</mgrwt>
</event>
<event>
 4    1  0.7499963E+004  0.2046673E+02  0.7546771E-02  0.1736203E+00
         21   -1    0    0  503  502  0.00000000000E+00  0.00000000000E+00  0.31013511040E+02  0.31013511040E+02  0.00000000000E+00 0. -1.
         21   -1    0    0  501  503 -0.00000000000E+00 -0.00000000000E+00 -0.13585874718E+02  0.13585874718E+02  0.00000000000E+00 0. -1.
          3    1    1    2  501    0 -0.28078094728E+01  0.20273213580E+02  0.10417277347E+02  0.22965335840E+02  0.00000000000E+00 0.  1.
         -3    1    1    2    0  502  0.28078094728E+01 -0.20273213580E+02  0.70103589751E+01  0.21634049918E+02  0.00000000000E+00 0. -1.
<mgrwt>
<rscale>  2 0.20466729E+02</rscale>
<asrwt>0</asrwt>
<pdfrwt beam="1">  1       21 0.47713094E-02 0.20466729E+02</pdfrwt>
<pdfrwt beam="2">  1       21 0.20901346E-02 0.20466729E+02</pdfrwt>
<totfact> 0.20800005E+08</totfact>
</mgrwt>
</event>
<event>
 4    1  0.7499963E+004  0.3018471E+02  0.7546771E-02  0.1596056E+00
         21   -1    0    0  501  502  0.00000000000E+00  0.00000000000E+00  0.12615662246E+04  0.12615662246E+04  0.00000000000E+00 0. -1.
         21   -1    0    0  502  503 -0.00000000000E+00 -0.00000000000E+00 -0.76331481101E+00  0.76331481101E+00  0.00000000000E+00 0. -1.
          3    1    1    2  501    0 -0.29643251134E+02  0.56915948438E+01  0.48393651170E+03  0.48487695753E+03  0.00000000000E+00 0.  1.
         -3    1    1    2    0  503  0.29643251134E+02 -0.56915948438E+01  0.77686639810E+03  0.77745258189E+03  0.00000000000E+00 0. -1.
<mgrwt>
<rscale>  2 0.30184708E+02</rscale>
<asrwt>0</asrwt>
<pdfrwt beam="1">  1       21 0.19408544E+00 0.30184708E+02</pdfrwt>
<pdfrwt beam="2">  1       21 0.11743406E-03 0.30184708E+02</pdfrwt>
<totfact> 0.13781487E+07</totfact>
</mgrwt>
</event>
<event>
 4    1  0.7499963E+004  0.2663321E+02  0.7546771E-02  0.1638594E+00
         21   -1    0    0  501  502  0.00000000000E+00  0.00000000000E+00  0.86796301951E+02  0.86796301951E+02  0.00000000000E+00 0. -1.
         21   -1    0    0  502  503 -0.00000000000E+00 -0.00000000000E+00 -0.83561135676E+01  0.83561135676E+01  0.00000000000E+00 0. -1.
          4    1    1    2  501    0  0.22596040112E+01 -0.26537179742E+02  0.32164312690E+02  0.41759678277E+02  0.00000000000E+00 0. -1.
         -4    1    1    2    0  503 -0.22596040112E+01  0.26537179742E+02  0.46275875693E+02  0.53392737241E+02  0.00000000000E+00 0.  1.
<mgrwt>
<rscale>  2 0.26633207E+02</rscale>
<asrwt>0</asrwt>
<pdfrwt beam="1">  1       21 0.13353277E-01 0.26633207E+02</pdfrwt>
<pdfrwt beam="2">  1       21 0.12855560E-02 0.26633207E+02</pdfrwt>
<totfact> 0.87643234E+07</totfact>
</mgrwt>
</event>
<event>
 4    1  0.7499963E+004  0.2209459E+02  0.7546771E-02  0.1706621E+00
         21   -1    0    0  503  502  0.00000000000E+00  0.00000000000E+00  0.17355948424E+01  0.17355948424E+01  0.00000000000E+00 0. -1.
         21   -1    0    0  501  503 -0.00000000000E+00 -0.00000000000E+00 -0.30320154790E+03  0.30320154790E+03  0.00000000000E+00 0. -1.
          5    1    1    2  501    0 -0.19973502180E+02 -0.94461735664E+01 -0.10972692115E+03  0.11192930005E+03  0.00000000000E+00 0.  1.
         -5    1    1    2    0  502  0.19973502180E+02  0.94461735664E+01 -0.19173903191E+03  0.19300784269E+03  0.00000000000E+00 0. -1.
<mgrwt>
<rscale>  2 0.22094592E+02</rscale>
<asrwt>0</asrwt>
<pdfrwt beam="1">  1       21 0.26701464E-03 0.22094592E+02</pdfrwt>
<pdfrwt beam="2">  1       21 0.46646383E-01 0.22094592E+02</pdfrwt>
<totfact> 0.91203229E+07</totfact>
</mgrwt>
</event>
<event>
 4    1  0.7499963E+004  0.2667469E+02  0.7546771E-02  0.1638051E+00
         21   -1    0    0  503  502  0.00000000000E+00  0.00000000000E+00  0.10887847726E+03  0.10887847726E+03  0.00000000000E+00 0. -1.
         21   -1    0    0  501  503 -0.00000000000E+00 -0.00000000000E+00 -0.70702317863E+01  0.70702317863E+01  0.00000000000E+00 0. -1.
          5    1    1    2  501    0 -0.20192212811E+02 -0.17430252219E+02  0.66852695993E+02  0.71977927951E+02  0.00000000000E+00 0. -1.
         -5    1    1    2    0  502  0.20192212811E+02  0.17430252219E+02  0.34955549482E+02  0.43970781096E+02  0.00000000000E+00 0.  1.
<mgrwt>
<rscale>  2 0.26674691E+02</rscale>
<asrwt>0</asrwt>
<pdfrwt beam="1">  1       21 0.16750534E-01 0.26674691E+02</pdfrwt>
<pdfrwt beam="2">  1       21 0.10877280E-02 0.26674691E+02</pdfrwt>
<totfact> 0.76623321E+07</totfact>
</mgrwt>
</event>
<event>
 4    1  0.7499963E+004  0.2363269E+02  0.7546771E-02  0.1681455E+00
         21   -1    0    0  503  502  0.00000000000E+00  0.00000000000E+00  0.63521035184E+02  0.63521035184E+02  0.00000000000E+00 0. -1.
         21   -1    0    0  501  503 -0.00000000000E+00 -0.00000000000E+00 -0.88748129614E+01  0.88748129614E+01  0.00000000000E+00 0. -1.
          5    1    1    2  501    0 -0.19801655950E+02 -0.12899545662E+02  0.30810812591E+02  0.38830529602E+02  0.00000000000E+00 0.  1.
         -5    1    1    2    0  502  0.19801655950E+02  0.12899545662E+02  0.23835409632E+02  0.33565318544E+02  0.00000000000E+00 0. -1.
<mgrwt>
<rscale>  2 0.23632686E+02</rscale>
<asrwt>0</asrwt>
<pdfrwt beam="1">  1       21 0.97724667E-02 0.23632686E+02</pdfrwt>
<pdfrwt beam="2">  1       21 0.13653559E-02 0.23632686E+02</pdfrwt>
<totfact> 0.13065819E+08</totfact>
</mgrwt>
</event>
<event>
 4    1  0.7499963E+004  0.2005565E+02  0.7546771E-02  0.1744224E+00
         21   -1    0    0  501  502  0.00000000000E+00  0.00000000000E+00  0.51953405944E+01  0.51953405944E+01  0.00000000000E+00 0.  1.
         21   -1    0    0  502  503 -0.00000000000E+00 -0.00000000000E+00 -0.10190694375E+03  0.10190694375E+03  0.00000000000E+00 0.  1.
          1    1    1    2  501    0 -0.15682011343E+02  0.12502146466E+02 -0.74605487386E+02  0.77254177195E+02  0.00000000000E+00 0.  1.
         -1    1    1    2    0  503  0.15682011343E+02 -0.12502146466E+02 -0.22106115773E+02  0.29848107152E+02  0.00000000000E+00 0. -1.
<mgrwt>
<rscale>  2 0.20055651E+02</rscale>
<asrwt>0</asrwt>
<pdfrwt beam="1">  1       21 0.79928319E-03 0.20055651E+02</pdfrwt>
<pdfrwt beam="2">  1       21 0.15677991E-01 0.20055651E+02</pdfrwt>
<totfact> 0.12595806E+08</totfact>
</mgrwt>
</event>
<event>
 4    1  0.7499963E+004  0.3226549E+02  0.7546771E-02  0.1574317E+00
         21   -1    0    0  503  502  0.00000000000E+00  0.00000000000E+00  0.67078405414E+01  0.67078405414E+01  0.00000000000E+00 0. -1.
         21   -1    0    0  501  503 -0.00000000000E+00 -0.00000000000E+00 -0.20665799715E+03  0.20665799715E+03  0.00000000000E+00 0. -1.
          2    1    1    2  501    0  0.32190339068E+02 -0.22008317812E+01 -0.15320946318E+03  0.15657011591E+03  0.00000000000E+00 0. -1.
         -2    1    1    2    0  502 -0.32190339068E+02  0.22008317812E+01 -0.46740693428E+02  0.56795721776E+02  0.00000000000E+00 0.  1.
<mgrwt>
<rscale>  2 0.32265486E+02</rscale>
<asrwt>0</asrwt>
<pdfrwt beam="1">  1       21 0.10319754E-02 0.32265486E+02</pdfrwt>
<pdfrwt beam="2">  1       21 0.31793539E-01 0.32265486E+02</pdfrwt>
<totfact> 0.27473165E+07</totfact>
</mgrwt>
</event>
<event>
 4    1  0.7499963E+004  0.3411605E+02  0.7546771E-02  0.1556593E+00
         21   -1    0    0  501  502  0.00000000000E+00  0.00000000000E+00  0.28773275408E+01  0.28773275408E+01  0.00000000000E+00 0.  1.
         21   -1    0    0  502  503 -0.00000000000E+00 -0.00000000000E+00 -0.46160321979E+03  0.46160321979E+03  0.00000000000E+00 0.  1.
          2    1    1    2  501    0 -0.25935699067E+02  0.22164031488E+02 -0.14768602952E+03  0.15157528853E+03  0.00000000000E+00 0.  1.
         -2    1    1    2    0  503  0.25935699067E+02 -0.22164031488E+02 -0.31103986273E+03  0.31290525880E+03  0.00000000000E+00 0. -1.
<mgrwt>
<rscale>  2 0.34116049E+02</rscale>
<asrwt>0</asrwt>
<pdfrwt beam="1">  1       21 0.44266577E-03 0.34116049E+02</pdfrwt>
<pdfrwt beam="2">  1       21 0.71015881E-01 0.34116049E+02</pdfrwt>
<totfact> 0.20449118E+07</totfact>
</mgrwt>
</event>
<event>
 4    1  0.7499963E+004  0.2311380E+02  0.7546771E-02  0.1689672E+00
         21   -1    0    0  501  502  0.00000000000E+00  0.00000000000E+00  0.34555143267E+01  0.34555143267E+01  0.00000000000E+00 0.  1.
         21   -1    0    0  502  503 -0.00000000000E+00 -0.00000000000E+00 -0.15479825145E+03  0.15479825145E+03  0.00000000000E+00 0.  1.
          1    1    1    2  501    0 -0.20306527705E+02  0.11040509069E+02 -0.78450104599E+02  0.81784270000E+02  0.00000000000E+00 0. -1.
         -1    1    1    2    0  503  0.20306527705E+02 -0.11040509069E+02 -0.72892632527E+02  0.76469495779E+02  0.00000000000E+00 0.  1.
<mgrwt>
<rscale>  2 0.23113803E+02</rscale>
<asrwt>0</asrwt>
<pdfrwt beam="1">  1       21 0.53161772E-03 0.23113803E+02</pdfrwt>
<pdfrwt beam="2">  1       21 0.23815110E-01 0.23113803E+02</pdfrwt>
<totfact> 0.11625142E+08</totfact>
</mgrwt>
</event>
<event>
 4    1  0.7499963E+004  0.5424172E+02  0.7546771E-02  0.1423719E+00
         21   -1    0    0  503  502  0.00000000000E+00  0.00000000000E+00  0.58195304226E+03  0.58195304226E+03  0.00000000000E+00 0.  1.
         21   -1    0    0  501  503 -0.00000000000E+00 -0.00000000000E+00 -0.56567473094E+01  0.56567473094E+01  0.00000000000E+00 0.  1.
          4    1    1    2  501    0  0.47107967718E+02 -0.26888721716E+02  0.38392044583E+03  0.38773324942E+03  0.00000000000E+00 0.  1.
         -4    1    1    2    0  502 -0.47107967718E+02  0.26888721716E+02  0.19237584912E+03  0.19987654015E+03  0.00000000000E+00 0. -1.
<mgrwt>
<rscale>  2 0.54241718E+02</rscale>
<asrwt>0</asrwt>
<pdfrwt beam="1">  1       21 0.89531190E-01 0.54241718E+02</pdfrwt>
<pdfrwt beam="2">  1       21 0.87026928E-03 0.54241718E+02</pdfrwt>
<totfact> 0.47076840E+06</totfact>
</mgrwt>
</event>
<event>
 4    1  0.7499963E+004  0.2082095E+02  0.7546771E-02  0.1729479E+00
         21   -1    0    0  503  502  0.00000000000E+00  0.00000000000E+00  0.15207533067E+02  0.15207533067E+02  0.00000000000E+00 0.  1.
         21   -1    0    0  501  503 -0.00000000000E+00 -0.00000000000E+00 -0.32896030160E+02  0.32896030160E+02  0.00000000000E+00 0.  1.
          5    1    1    2  501    0 -0.83850788159E+01  0.19057867913E+02 -0.17630223114E+02  0.27282533665E+02  0.00000000000E+00 0. -1.
         -5    1    1    2    0  502  0.83850788159E+01 -0.19057867913E+02 -0.58273978538E-01  0.20821029561E+02  0.00000000000E+00 0.  1.
<mgrwt>
<rscale>  2 0.20820948E+02</rscale>
<asrwt>0</asrwt>
<pdfrwt beam="1">  1       21 0.23396205E-02 0.20820948E+02</pdfrwt>
<pdfrwt beam="2">  1       21 0.50609277E-02 0.20820948E+02</pdfrwt>
<totfact> 0.16025550E+08</totfact>
</mgrwt>
</event>
<event>
 4    1  0.7499963E+004  0.3707037E+02  0.7546771E-02  0.1530948E+00
         21   -1    0    0  501  502  0.00000000000E+00  0.00000000000E+00  0.18447079557E+03  0.18447079557E+03  0.00000000000E+00 0. -1.
         21   -1    0    0  502  503 -0.00000000000E+00 -0.00000000000E+00 -0.91708176263E+01  0.91708176263E+01  0.00000000000E+00 0. -1.
          2    1    1    2  501    0 -0.36057403749E+02 -0.86067357640E+01  0.45703349168E+02  0.58847331212E+02  0.00000000000E+00 0. -1.
         -2    1    1    2    0  503  0.36057403749E+02  0.86067357640E+01  0.12959662877E+03  0.13479428198E+03  0.00000000000E+00 0.  1.
<mgrwt>
<rscale>  2 0.37070369E+02</rscale>
<asrwt>0</asrwt>
<pdfrwt beam="1">  1       21 0.28380120E-01 0.37070369E+02</pdfrwt>
<pdfrwt beam="2">  1       21 0.14108952E-02 0.37070369E+02</pdfrwt>
<totfact> 0.21509235E+07</totfact>
</mgrwt>
</event>
<event>
 4    1  0.7499963E+004  0.2185055E+02  0.7546771E-02  0.1710850E+00
         21   -1    0    0  501  502  0.00000000000E+00  0.00000000000E+00  0.22548134894E+02  0.22548134894E+02  0.00000000000E+00 0.  1.
         21   -1    0    0  502  503 -0.00000000000E+00 -0.00000000000E+00 -0.38282833906E+02  0.38282833906E+02  0.00000000000E+00 0.  1.
          5    1    1    2  501    0 -0.11260507201E+02 -0.18725586084E+02  0.12465391539E+02  0.25156163914E+02  0.00000000000E+00 0. -1.
         -5    1    1    2    0  503  0.11260507201E+02  0.18725586084E+02 -0.28200090551E+02  0.35674804887E+02  0.00000000000E+00 0.  1.
<mgrwt>
<rscale>  2 0.21850551E+02</rscale>
<asrwt>0</asrwt>
<pdfrwt beam="1">  1       21 0.34689438E-02 0.21850551E+02</pdfrwt>
<pdfrwt beam="2">  1       21 0.58896668E-02 0.21850551E+02</pdfrwt>
<totfact> 0.69332627E+07</totfact>
</mgrwt>
</event>
<event>
 4    1  0.7499963E+004  0.2669753E+02  0.7546771E-02  0.1637752E+00
         21   -1    0    0  503  502  0.00000000000E+00  0.00000000000E+00  0.54195480867E+02  0.54195480867E+02  0.00000000000E+00 0.  1.
         21   -1    0    0  501  503 -0.00000000000E+00 -0.00000000000E+00 -0.14138936451E+02  0.14138936451E+02  0.00000000000E+00 0.  1.
          2    1    1    2  501    0  0.26337784658E+02 -0.43679935781E+01  0.10999478563E+02  0.28874673976E+02  0.00000000000E+00 0. -1.
         -2    1    1    2    0  502 -0.26337784658E+02  0.43679935781E+01  0.29057065852E+02  0.39459743341E+02  0.00000000000E+00 0.  1.
<mgrwt>
<rscale>  2 0.26697533E+02</rscale>
<asrwt>0</asrwt>
<pdfrwt beam="1">  1       21 0.83377661E-02 0.26697533E+02</pdfrwt>
<pdfrwt beam="2">  1       21 0.21752210E-02 0.26697533E+02</pdfrwt>
<totfact> 0.85974011E+07</totfact>
</mgrwt>
</event>
<event>
 4    1  0.7499963E+004  0.2090233E+02  0.7546771E-02  0.1727958E+00
         21   -1    0    0  501  502  0.00000000000E+00  0.00000000000E+00  0.14831962687E+02  0.14831962687E+02  0.00000000000E+00 0. -1.
         21   -1    0    0  502  503 -0.00000000000E+00 -0.00000000000E+00 -0.33682798626E+02  0.33682798626E+02  0.00000000000E+00 0. -1.
          4    1    1    2  501    0 -0.18761499670E+02  0.92148425167E+01 -0.18017275248E+02  0.27595822145E+02  0.00000000000E+00 0.  1.
         -4    1    1    2    0  503  0.18761499670E+02 -0.92148425167E+01 -0.83356069093E+00  0.20918939168E+02  0.00000000000E+00 0. -1.
<mgrwt>
<rscale>  2 0.20902325E+02</rscale>
<asrwt>0</asrwt>
<pdfrwt beam="1">  1       21 0.22818404E-02 0.20902325E+02</pdfrwt>
<pdfrwt beam="2">  1       21 0.51819690E-02 0.20902325E+02</pdfrwt>
<totfact> 0.16059547E+08</totfact>
</mgrwt>
</event>
<event>
 4    1  0.7499963E+004  0.7992113E+02  0.7546771E-02  0.1329275E+00
         21   -1    0    0  503  502  0.00000000000E+00  0.00000000000E+00  0.52038790700E+02  0.52038790700E+02  0.00000000000E+00 0. -1.
         21   -1    0    0  501  503 -0.00000000000E+00 -0.00000000000E+00 -0.12552921350E+03  0.12552921350E+03  0.00000000000E+00 0. -1.
          4    1    1    2  501    0 -0.16592083740E+02 -0.78179857266E+02 -0.23517508591E+02  0.83309426449E+02  0.00000000000E+00 0. -1.
         -4    1    1    2    0  502  0.16592083740E+02  0.78179857266E+02 -0.49972914207E+02  0.94258577749E+02  0.00000000000E+00 0.  1.
<mgrwt>
<rscale>  2 0.79921132E+02</rscale>
<asrwt>0</asrwt>
<pdfrwt beam="1">  1       21 0.80059679E-02 0.79921132E+02</pdfrwt>
<pdfrwt beam="2">  1       21 0.19312187E-01 0.79921132E+02</pdfrwt>
<totfact> 0.28624300E+06</totfact>
</mgrwt>
</event>
<event>
 4    1  0.7499963E+004  0.2091058E+02  0.7546771E-02  0.1727804E+00
         21   -1    0    0  503  502  0.00000000000E+00  0.00000000000E+00  0.43311899679E+02  0.43311899679E+02  0.00000000000E+00 0.  1.
         21   -1    0    0  501  503 -0.00000000000E+00 -0.00000000000E+00 -0.10113321293E+02  0.10113321293E+02  0.00000000000E+00 0.  1.
          5    1    1    2  501    0 -0.20263167387E+02  0.51629964923E+01  0.15475914272E+02  0.26014542239E+02  0.00000000000E+00 0.  1.
         -5    1    1    2    0  502  0.20263167387E+02 -0.51629964923E+01  0.17722664114E+02  0.27410678734E+02  0.00000000000E+00 0. -1.
<mgrwt>
<rscale>  2 0.20910583E+02</rscale>
<asrwt>0</asrwt>
<pdfrwt beam="1">  1       21 0.66633691E-02 0.20910583E+02</pdfrwt>
<pdfrwt beam="2">  1       21 0.15558956E-02 0.20910583E+02</pdfrwt>
<totfact> 0.19275351E+08</totfact>
</mgrwt>
</event>
<event>
 4    1  0.7499963E+004  0.2187563E+02  0.7546771E-02  0.1710412E+00
         21   -1    0    0  501  502  0.00000000000E+00  0.00000000000E+00  0.16114188707E+02  0.16114188707E+02  0.00000000000E+00 0.  1.
         21   -1    0    0  502  503 -0.00000000000E+00 -0.00000000000E+00 -0.32812169093E+02  0.32812169093E+02  0.00000000000E+00 0.  1.
          5    1    1    2  501    0  0.16605378457E+02  0.14240950856E+02 -0.15886628819E+02  0.27035684755E+02  0.00000000000E+00 0. -1.
         -5    1    1    2    0  503 -0.16605378457E+02 -0.14240950856E+02 -0.81135156683E+00  0.21890673045E+02  0.00000000000E+00 0.  1.
<mgrwt>
<rscale>  2 0.21875632E+02</rscale>
<asrwt>0</asrwt>
<pdfrwt beam="1">  1       21 0.24791060E-02 0.21875632E+02</pdfrwt>
<pdfrwt beam="2">  1       21 0.50480260E-02 0.21875632E+02</pdfrwt>
<totfact> 0.14944910E+08</totfact>
</mgrwt>
</event>
<event>
 4    1  0.7499963E+004  0.2106199E+02  0.7546771E-02  0.1724998E+00
         21   -1    0    0  503  502  0.00000000000E+00  0.00000000000E+00  0.18273927163E+02  0.18273927163E+02  0.00000000000E+00 0. -1.
         21   -1    0    0  501  503 -0.00000000000E+00 -0.00000000000E+00 -0.25173205757E+02  0.25173205757E+02  0.00000000000E+00 0. -1.
          2    1    1    2  501    0  0.15967135175E+02  0.13735277576E+02 -0.75521359452E+01  0.22375031019E+02  0.00000000000E+00 0. -1.
         -2    1    1    2    0  502 -0.15967135175E+02 -0.13735277576E+02  0.65285735122E+00  0.21072101900E+02  0.00000000000E+00 0.  1.
<mgrwt>
<rscale>  2 0.21061986E+02</rscale>
<asrwt>0</asrwt>
<pdfrwt beam="1">  1       21 0.28113734E-02 0.21061986E+02</pdfrwt>
<pdfrwt beam="2">  1       21 0.38728009E-02 0.21061986E+02</pdfrwt>
<totfact> 0.18476537E+08</totfact>
</mgrwt>
</event>
<event>
 4    1  0.7499963E+004  0.2326778E+02  0.7546771E-02  0.1687206E+00
         21   -1    0    0  501  502  0.00000000000E+00  0.00000000000E+00  0.53765887834E+01  0.53765887834E+01  0.00000000000E+00 0.  1.
         21   -1    0    0  502  503 -0.00000000000E+00 -0.00000000000E+00 -0.17780315626E+03  0.17780315626E+03  0.00000000000E+00 0.  1.
          3    1    1    2  501    0 -0.25081004890E+01  0.23132203423E+02 -0.14652908903E+03  0.14836496667E+03  0.00000000000E+00 0. -1.
         -3    1    1    2    0  503  0.25081004890E+01 -0.23132203423E+02 -0.25897478447E+02  0.34814778373E+02  0.00000000000E+00 0.  1.
<mgrwt>
<rscale>  2 0.23267776E+02</rscale>
<asrwt>0</asrwt>
<pdfrwt beam="1">  1       21 0.82716776E-03 0.23267776E+02</pdfrwt>
<pdfrwt beam="2">  1       21 0.27354323E-01 0.23267776E+02</pdfrwt>
<totfact> 0.47131586E+07</totfact>
</mgrwt>
</event>
<event>
 4    1  0.7499963E+004  0.2605401E+02  0.7546771E-02  0.1646309E+00
         21   -1    0    0  503  502  0.00000000000E+00  0.00000000000E+00  0.81048810854E+01  0.81048810854E+01  0.00000000000E+00 0. -1.
         21   -1    0    0  501  503 -0.00000000000E+00 -0.00000000000E+00 -0.89239186616E+02  0.89239186616E+02  0.00000000000E+00 0. -1.
          3    1    1    2  501    0 -0.19387145120E+02 -0.17405453516E+02 -0.28499527115E+02  0.38613912697E+02  0.00000000000E+00 0. -1.
         -3    1    1    2    0  502  0.19387145120E+02  0.17405453516E+02 -0.52634778415E+02  0.58730155004E+02  0.00000000000E+00 0.  1.
<mgrwt>
<rscale>  2 0.26054006E+02</rscale>
<asrwt>0</asrwt>
<pdfrwt beam="1">  1       21 0.12469047E-02 0.26054006E+02</pdfrwt>
<pdfrwt beam="2">  1       21 0.13729106E-01 0.26054006E+02</pdfrwt>
<totfact> 0.87089367E+07</totfact>
</mgrwt>
</event>
<event>
 4    1  0.7499963E+004  0.2147370E+02  0.7546771E-02  0.1717516E+00
         21   -1    0    0  501  502  0.00000000000E+00  0.00000000000E+00  0.97334832502E+01  0.97334832502E+01  0.00000000000E+00 0. -1.
         21   -1    0    0  502  503 -0.00000000000E+00 -0.00000000000E+00 -0.47472474520E+02  0.47472474520E+02  0.00000000000E+00 0. -1.
          4    1    1    2  501    0  0.43292700377E+01  0.21032764560E+02 -0.20168320406E+02  0.29459818602E+02  0.00000000000E+00 0.  1.
         -4    1    1    2    0  503 -0.43292700377E+01 -0.21032764560E+02 -0.17570670864E+02  0.27746139167E+02  0.00000000000E+00 0. -1.
<mgrwt>
<rscale>  2 0.21473699E+02</rscale>
<asrwt>0</asrwt>
<pdfrwt beam="1">  1       21 0.14974590E-02 0.21473699E+02</pdfrwt>
<pdfrwt beam="2">  1       21 0.73034576E-02 0.21473699E+02</pdfrwt>
<totfact> 0.17765202E+08</totfact>
</mgrwt>
</event>
<event>
 4    1  0.7499963E+004  0.2093970E+02  0.7546771E-02  0.1727262E+00
         21   -1    0    0  503  502  0.00000000000E+00  0.00000000000E+00  0.38512730518E+02  0.38512730518E+02  0.00000000000E+00 0.  1.
         21   -1    0    0  501  503 -0.00000000000E+00 -0.00000000000E+00 -0.17219047795E+02  0.17219047795E+02  0.00000000000E+00 0.  1.
          4    1    1    2  501    0  0.17921199310E+02 -0.10830582373E+02 -0.55731263255E+01  0.21668655618E+02  0.00000000000E+00 0. -1.
         -4    1    1    2    0  502 -0.17921199310E+02  0.10830582373E+02  0.26866809048E+02  0.34063122694E+02  0.00000000000E+00 0.  1.
<mgrwt>
<rscale>  2 0.20939697E+02</rscale>
<asrwt>0</asrwt>
<pdfrwt beam="1">  1       21 0.59250355E-02 0.20939697E+02</pdfrwt>
<pdfrwt beam="2">  1       21 0.26490843E-02 0.20939697E+02</pdfrwt>
<totfact> 0.10313820E+08</totfact>
</mgrwt>
</event>
<event>
 4    1  0.7499963E+004  0.2125656E+02  0.7546771E-02  0.1721436E+00
         21   -1    0    0  501  502  0.00000000000E+00  0.00000000000E+00  0.12315465737E+01  0.12315465737E+01  0.00000000000E+00 0. -1.
         21   -1    0    0  502  503 -0.00000000000E+00 -0.00000000000E+00 -0.36689902242E+03  0.36689902242E+03  0.00000000000E+00 0. -1.
          1    1    1    2  501    0  0.19894903992E+02  0.74856060517E+01 -0.18377160915E+03  0.18499688060E+03  0.00000000000E+00 0. -1.
         -1    1    1    2    0  503 -0.19894903992E+02 -0.74856060517E+01 -0.18189586670E+03  0.18313368840E+03  0.00000000000E+00 0.  1.
<mgrwt>
<rscale>  2 0.21256564E+02</rscale>
<asrwt>0</asrwt>
<pdfrwt beam="1">  1       21 0.18946865E-03 0.21256564E+02</pdfrwt>
<pdfrwt beam="2">  1       21 0.56446020E-01 0.21256564E+02</pdfrwt>
<totfact> 0.10225430E+08</totfact>
</mgrwt>
</event>
<event>
 4    1  0.7499963E+004  0.2145032E+02  0.7546771E-02  0.1717936E+00
         21   -1    0    0  503  502  0.00000000000E+00  0.00000000000E+00  0.20210672362E+03  0.20210672362E+03  0.00000000000E+00 0. -1.
         21   -1    0    0  501  503 -0.00000000000E+00 -0.00000000000E+00 -0.22821822248E+01  0.22821822248E+01  0.00000000000E+00 0. -1.
          3    1    1    2  501    0 -0.73528753196E+01  0.20150716892E+02  0.94858030481E+02  0.97253082797E+02  0.00000000000E+00 0.  1.
         -3    1    1    2    0  502  0.73528753196E+01 -0.20150716892E+02  0.10496651091E+03  0.10713582305E+03  0.00000000000E+00 0. -1.
<mgrwt>
<rscale>  2 0.21450319E+02</rscale>
<asrwt>0</asrwt>
<pdfrwt beam="1">  1       21 0.31093328E-01 0.21450319E+02</pdfrwt>
<pdfrwt beam="2">  1       21 0.35110512E-03 0.21450319E+02</pdfrwt>
<totfact> 0.12961835E+08</totfact>
</mgrwt>
</event>
<event>
 4    1  0.7499963E+004  0.2099646E+02  0.7546771E-02  0.1726209E+00
         21   -1    0    0  503  502  0.00000000000E+00  0.00000000000E+00  0.26018126724E+03  0.26018126724E+03  0.00000000000E+00 0. -1.
         21   -1    0    0  501  503 -0.00000000000E+00 -0.00000000000E+00 -0.18355996659E+01  0.18355996659E+01  0.00000000000E+00 0. -1.
          4    1    1    2  501    0  0.25435764147E+01  0.20841823166E+02  0.92837787644E+02  0.95182488875E+02  0.00000000000E+00 0. -1.
         -4    1    1    2    0  502 -0.25435764147E+01 -0.20841823166E+02  0.16550787993E+03  0.16683437803E+03  0.00000000000E+00 0.  1.
<mgrwt>
<rscale>  2 0.20996461E+02</rscale>
<asrwt>0</asrwt>
<pdfrwt beam="1">  1       21 0.40027858E-01 0.20996461E+02</pdfrwt>
<pdfrwt beam="2">  1       21 0.28240016E-03 0.20996461E+02</pdfrwt>
<totfact> 0.11090410E+08</totfact>
</mgrwt>
</event>
<event>
 4    1  0.7499963E+004  0.2335638E+02  0.7546771E-02  0.1685798E+00
         21   -1    0    0  503  502  0.00000000000E+00  0.00000000000E+00  0.87243125733E+02  0.87243125733E+02  0.00000000000E+00 0. -1.
         21   -1    0    0  501  503 -0.00000000000E+00 -0.00000000000E+00 -0.67103925463E+01  0.67103925463E+01  0.00000000000E+00 0. -1.
          5    1    1    2  501    0 -0.42512759957E+01 -0.22966216093E+02  0.28000094654E+02  0.36462662133E+02  0.00000000000E+00 0.  1.
         -5    1    1    2    0  502  0.42512759957E+01  0.22966216093E+02  0.52532638533E+02  0.57490856146E+02  0.00000000000E+00 0. -1.
<mgrwt>
<rscale>  2 0.23356379E+02</rscale>
<asrwt>0</asrwt>
<pdfrwt beam="1">  1       21 0.13422019E-01 0.23356379E+02</pdfrwt>
<pdfrwt beam="2">  1       21 0.10323681E-02 0.23356379E+02</pdfrwt>
<totfact> 0.11689218E+08</totfact>
</mgrwt>
</event>
<event>
 4    1  0.7499963E+004  0.3143263E+02  0.7546771E-02  0.1582772E+00
         21   -1    0    0  503  502  0.00000000000E+00  0.00000000000E+00  0.15851800606E+02  0.15851800606E+02  0.00000000000E+00 0.  1.
         21   -1    0    0  501  503 -0.00000000000E+00 -0.00000000000E+00 -0.66229576476E+02  0.66229576476E+02  0.00000000000E+00 0.  1.
          1    1    1    2  501    0 -0.15763224834E+02  0.27194323907E+02 -0.15227713830E+02  0.34926977803E+02  0.00000000000E+00 0. -1.
         -1    1    1    2    0  502  0.15763224834E+02 -0.27194323907E+02 -0.35150062040E+02  0.47154399279E+02  0.00000000000E+00 0.  1.
<mgrwt>
<rscale>  2 0.31432634E+02</rscale>
<asrwt>0</asrwt>
<pdfrwt beam="1">  1       21 0.24387386E-02 0.31432634E+02</pdfrwt>
<pdfrwt beam="2">  1       21 0.10189166E-01 0.31432634E+02</pdfrwt>
<totfact> 0.53617643E+07</totfact>
</mgrwt>
</event>
<event>
 4    1  0.7499963E+004  0.2195531E+02  0.7546771E-02  0.1709026E+00
         21   -1    0    0  501  502  0.00000000000E+00  0.00000000000E+00  0.11207807300E+02  0.11207807300E+02  0.00000000000E+00 0.  1.
         21   -1    0    0  502  503 -0.00000000000E+00 -0.00000000000E+00 -0.48215807261E+02  0.48215807261E+02  0.00000000000E+00 0.  1.
          4    1    1    2  501    0  0.12218654945E+01 -0.21921285018E+02 -0.87400978342E+01  0.23631017801E+02  0.00000000000E+00 0.  1.
         -4    1    1    2    0  503 -0.12218654945E+01  0.21921285018E+02 -0.28267902127E+02  0.35792596760E+02  0.00000000000E+00 0. -1.
<mgrwt>
<rscale>  2 0.21955311E+02</rscale>
<asrwt>0</asrwt>
<pdfrwt beam="1">  1       21 0.17242780E-02 0.21955311E+02</pdfrwt>
<pdfrwt beam="2">  1       21 0.74178165E-02 0.21955311E+02</pdfrwt>
<totfact> 0.14076367E+08</totfact>
</mgrwt>
</event>
<event>
 4    1  0.7499963E+004  0.3351825E+02  0.7546771E-02  0.1562167E+00
         21   -1    0    0  503  502  0.00000000000E+00  0.00000000000E+00  0.81462799549E+03  0.81462799549E+03  0.00000000000E+00 0. -1.
         21   -1    0    0  501  503 -0.00000000000E+00 -0.00000000000E+00 -0.18677779794E+01  0.18677779794E+01  0.00000000000E+00 0. -1.
          1    1    1    2  501    0  0.47388135277E+01 -0.33181571056E+02  0.19756493962E+03  0.20038806945E+03  0.00000000000E+00 0. -1.
         -1    1    1    2    0  502 -0.47388135277E+01  0.33181571056E+02  0.61519527789E+03  0.61610770402E+03  0.00000000000E+00 0.  1.
<mgrwt>
<rscale>  2 0.33518249E+02</rscale>
<asrwt>0</asrwt>
<pdfrwt beam="1">  1       21 0.12532710E+00 0.33518249E+02</pdfrwt>
<pdfrwt beam="2">  1       21 0.28735111E-03 0.33518249E+02</pdfrwt>
<totfact> 0.11069717E+07</totfact>
</mgrwt>
</event>
<event>
 4    1  0.7499963E+004  0.2468274E+02  0.7546771E-02  0.1665601E+00
         21   -1    0    0  503  502  0.00000000000E+00  0.00000000000E+00  0.89210837879E+02  0.89210837879E+02  0.00000000000E+00 0. -1.
         21   -1    0    0  501  503 -0.00000000000E+00 -0.00000000000E+00 -0.87604633702E+01  0.87604633702E+01  0.00000000000E+00 0. -1.
          2    1    1    2  501    0  0.24243718444E+02  0.46346348263E+01  0.17225217462E+02  0.30098934210E+02  0.00000000000E+00 0.  1.
         -2    1    1    2    0  502 -0.24243718444E+02 -0.46346348263E+01  0.63225157046E+02  0.67872367039E+02  0.00000000000E+00 0. -1.
<mgrwt>
<rscale>  2 0.24682741E+02</rscale>
<asrwt>0</asrwt>
<pdfrwt beam="1">  1       21 0.13724744E-01 0.24682741E+02</pdfrwt>
<pdfrwt beam="2">  1       21 0.13477637E-02 0.24682741E+02</pdfrwt>
<totfact> 0.76379320E+07</totfact>
</mgrwt>
</event>
<event>
 4    1  0.7499963E+004  0.2004517E+02  0.7546771E-02  0.1744431E+00
         21   -1    0    0  501  502  0.00000000000E+00  0.00000000000E+00  0.30284610110E+03  0.30284610110E+03  0.00000000000E+00 0. -1.
         21   -1    0    0  502  503 -0.00000000000E+00 -0.00000000000E+00 -0.15656405013E+01  0.15656405013E+01  0.00000000000E+00 0. -1.
          2    1    1    2  501    0 -0.14251563815E+02 -0.14096164899E+02  0.91188952389E+02  0.93366128622E+02  0.00000000000E+00 0.  1.
         -2    1    1    2    0  503  0.14251563815E+02  0.14096164899E+02  0.21009150821E+03  0.21104561298E+03  0.00000000000E+00 0. -1.
<mgrwt>
<rscale>  2 0.20045172E+02</rscale>
<asrwt>0</asrwt>
<pdfrwt beam="1">  1       21 0.46591661E-01 0.20045172E+02</pdfrwt>
<pdfrwt beam="2">  1       21 0.24086801E-03 0.20045172E+02</pdfrwt>
<totfact> 0.10336538E+08</totfact>
</mgrwt>
</event>
<event>
 4    1  0.7499963E+004  0.3043131E+02  0.7546771E-02  0.1593369E+00
         21   -1    0    0  501  502  0.00000000000E+00  0.00000000000E+00  0.28511230219E+01  0.28511230219E+01  0.00000000000E+00 0.  1.
         21   -1    0    0  502  503 -0.00000000000E+00 -0.00000000000E+00 -0.34216369150E+03  0.34216369150E+03  0.00000000000E+00 0.  1.
          3    1    1    2  501    0 -0.30431024229E+02 -0.13196120482E+00 -0.13080328512E+03  0.13429655262E+03  0.00000000000E+00 0.  1.
         -3    1    1    2    0  503  0.30431024229E+02  0.13196120482E+00 -0.20850928336E+03  0.21071826190E+03  0.00000000000E+00 0. -1.
<mgrwt>
<rscale>  2 0.30431310E+02</rscale>
<asrwt>0</asrwt>
<pdfrwt beam="1">  1       21 0.43863438E-03 0.30431310E+02</pdfrwt>
<pdfrwt beam="2">  1       21 0.52640560E-01 0.30431310E+02</pdfrwt>
<totfact> 0.37372464E+07</totfact>
</mgrwt>
</event>
<event>
 4    1  0.7499963E+004  0.2234903E+02  0.7546771E-02  0.1702285E+00
         21   -1    0    0  501  502  0.00000000000E+00  0.00000000000E+00  0.86854160154E+01  0.86854160154E+01  0.00000000000E+00 0. -1.
         21   -1    0    0  502  503 -0.00000000000E+00 -0.00000000000E+00 -0.57531029906E+02  0.57531029906E+02  0.00000000000E+00 0. -1.
          1    1    1    2  501    0  0.14494656215E+02  0.17011293503E+02 -0.23757517955E+02  0.32617461962E+02  0.00000000000E+00 0. -1.
         -1    1    1    2    0  503 -0.14494656215E+02 -0.17011293503E+02 -0.25088095935E+02  0.33598983959E+02  0.00000000000E+00 0.  1.
<mgrwt>
<rscale>  2 0.22349031E+02</rscale>
<asrwt>0</asrwt>
<pdfrwt beam="1">  1       21 0.13362179E-02 0.22349031E+02</pdfrwt>
<pdfrwt beam="2">  1       21 0.88509275E-02 0.22349031E+02</pdfrwt>
<totfact> 0.15628521E+08</totfact>
</mgrwt>
</event>
<event>
 4    1  0.7499963E+004  0.2195052E+02  0.7546771E-02  0.1709109E+00
         21   -1    0    0  503  502  0.00000000000E+00  0.00000000000E+00  0.50321016285E+01  0.50321016285E+01  0.00000000000E+00 0. -1.
         21   -1    0    0  501  503 -0.00000000000E+00 -0.00000000000E+00 -0.11249187534E+03  0.11249187534E+03  0.00000000000E+00 0. -1.
          2    1    1    2  501    0  0.19956353383E+02  0.91416172539E+01 -0.31060793330E+02  0.38034170013E+02  0.00000000000E+00 0.  1.
         -2    1    1    2    0  502 -0.19956353383E+02 -0.91416172539E+01 -0.76398980379E+02  0.79489806953E+02  0.00000000000E+00 0. -1.
<mgrwt>
<rscale>  2 0.21950517E+02</rscale>
<asrwt>0</asrwt>
<pdfrwt beam="1">  1       21 0.77416946E-03 0.21950517E+02</pdfrwt>
<pdfrwt beam="2">  1       21 0.17306443E-01 0.21950517E+02</pdfrwt>
<totfact> 0.11456094E+08</totfact>
</mgrwt>
</event>
<event>
 4    1  0.7499963E+004  0.2622772E+02  0.7546771E-02  0.1643969E+00
         21   -1    0    0  503  502  0.00000000000E+00  0.00000000000E+00  0.24854534063E+01  0.24854534063E+01  0.00000000000E+00 0. -1.
         21   -1    0    0  501  503 -0.00000000000E+00 -0.00000000000E+00 -0.31394238170E+03  0.31394238170E+03  0.00000000000E+00 0. -1.
          3    1    1    2  501    0 -0.25708222929E+02  0.51942781911E+01 -0.10128531098E+03  0.10462603630E+03  0.00000000000E+00 0.  1.
         -3    1    1    2    0  502  0.25708222929E+02 -0.51942781911E+01 -0.21017161732E+03  0.21180179881E+03  0.00000000000E+00 0. -1.
<mgrwt>
<rscale>  2 0.26227719E+02</rscale>
<asrwt>0</asrwt>
<pdfrwt beam="1">  1       21 0.38237784E-03 0.26227719E+02</pdfrwt>
<pdfrwt beam="2">  1       21 0.48298778E-01 0.26227719E+02</pdfrwt>
<totfact> 0.52573555E+07</totfact>
</mgrwt>
</event>
<event>
 4    1  0.7499963E+004  0.2804691E+02  0.7546771E-02  0.1620738E+00
         21   -1    0    0  503  502  0.00000000000E+00  0.00000000000E+00  0.45664824814E+01  0.45664824814E+01  0.00000000000E+00 0. -1.
         21   -1    0    0  501  503 -0.00000000000E+00 -0.00000000000E+00 -0.24453283858E+03  0.24453283858E+03  0.00000000000E+00 0. -1.
          3    1    1    2  501    0  0.84444622437E+01 -0.26745468001E+02 -0.18769384355E+03  0.18977778560E+03  0.00000000000E+00 0.  1.
         -3    1    1    2    0  502 -0.84444622437E+01  0.26745468001E+02 -0.52272512548E+02  0.59321535460E+02  0.00000000000E+00 0. -1.
<mgrwt>
<rscale>  2 0.28046907E+02</rscale>
<asrwt>0</asrwt>
<pdfrwt beam="1">  1       21 0.70253576E-03 0.28046907E+02</pdfrwt>
<pdfrwt beam="2">  1       21 0.37620437E-01 0.28046907E+02</pdfrwt>
<totfact> 0.34874422E+07</totfact>
</mgrwt>
</event>
<event>
 4    1  0.7499963E+004  0.2002750E+02  0.7546771E-02  0.1744782E+00
         21   -1    0    0  501  502  0.00000000000E+00  0.00000000000E+00  0.43933580445E+01  0.43933580445E+01  0.00000000000E+00 0.  1.
         21   -1    0    0  502  503 -0.00000000000E+00 -0.00000000000E+00 -0.10004359799E+03  0.10004359799E+03  0.00000000000E+00 0.  1.
          1    1    1    2  501    0 -0.84666868111E-01  0.20027321848E+02 -0.32385130608E+02  0.38077519265E+02  0.00000000000E+00 0. -1.
         -1    1    1    2    0  503  0.84666868111E-01 -0.20027321848E+02 -0.63265109341E+02  0.66359436773E+02  0.00000000000E+00 0.  1.
<mgrwt>
<rscale>  2 0.20027501E+02</rscale>
<asrwt>0</asrwt>
<pdfrwt beam="1">  1       21 0.67590127E-03 0.20027501E+02</pdfrwt>
<pdfrwt beam="2">  1       21 0.15391322E-01 0.20027501E+02</pdfrwt>
<totfact> 0.16655521E+08</totfact>
</mgrwt>
</event>
<event>
 4    1  0.7499963E+004  0.2155961E+02  0.7546771E-02  0.1715982E+00
         21   -1    0    0  503  502  0.00000000000E+00  0.00000000000E+00  0.61768335662E+01  0.61768335662E+01  0.00000000000E+00 0. -1.
         21   -1    0    0  501  503 -0.00000000000E+00 -0.00000000000E+00 -0.76542641853E+02  0.76542641853E+02  0.00000000000E+00 0. -1.
          3    1    1    2  501    0  0.20558536693E+02 -0.64933220140E+01 -0.40554394144E+02  0.45929027271E+02  0.00000000000E+00 0.  1.
         -3    1    1    2    0  502 -0.20558536693E+02  0.64933220140E+01 -0.29811414143E+02  0.36790448148E+02  0.00000000000E+00 0. -1.
<mgrwt>
<rscale>  2 0.21559607E+02</rscale>
<asrwt>0</asrwt>
<pdfrwt beam="1">  1       21 0.95028206E-03 0.21559607E+02</pdfrwt>
<pdfrwt beam="2">  1       21 0.11775791E-01 0.21559607E+02</pdfrwt>
<totfact> 0.16101513E+08</totfact>
</mgrwt>
</event>
<event>
 4    1  0.7499963E+004  0.2112664E+02  0.7546771E-02  0.1723809E+00
         21   -1    0    0  501  502  0.00000000000E+00  0.00000000000E+00  0.15915540772E+02  0.15915540772E+02  0.00000000000E+00 0.  1.
         21   -1    0    0  502  503 -0.00000000000E+00 -0.00000000000E+00 -0.35422657270E+02  0.35422657270E+02  0.00000000000E+00 0.  1.
          1    1    1    2  501    0  0.10966123229E+02 -0.18057664213E+02  0.19619014927E+01  0.21217543518E+02  0.00000000000E+00 0.  1.
         -1    1    1    2    0  503 -0.10966123229E+02  0.18057664213E+02 -0.21469017990E+02  0.30120654524E+02  0.00000000000E+00 0. -1.
<mgrwt>
<rscale>  2 0.21126644E+02</rscale>
<asrwt>0</asrwt>
<pdfrwt beam="1">  1       21 0.24485448E-02 0.21126644E+02</pdfrwt>
<pdfrwt beam="2">  1       21 0.54496395E-02 0.21126644E+02</pdfrwt>
<totfact> 0.13343523E+08</totfact>
</mgrwt>
</event>
<event>
 4    1  0.7499963E+004  0.3452480E+02  0.7546771E-02  0.1552861E+00
         21   -1    0    0  503  502  0.00000000000E+00  0.00000000000E+00  0.39346987134E+03  0.39346987134E+03  0.00000000000E+00 0. -1.
         21   -1    0    0  501  503 -0.00000000000E+00 -0.00000000000E+00 -0.30774339748E+01  0.30774339748E+01  0.00000000000E+00 0. -1.
          4    1    1    2  501    0  0.12839519627E+02 -0.32048530629E+02  0.21997781092E+03  0.22267060622E+03  0.00000000000E+00 0.  1.
         -4    1    1    2    0  502 -0.12839519627E+02  0.32048530629E+02  0.17041462644E+03  0.17387669909E+03  0.00000000000E+00 0. -1.
<mgrwt>
<rscale>  2 0.34524797E+02</rscale>
<asrwt>0</asrwt>
<pdfrwt beam="1">  1       21 0.60533786E-01 0.34524797E+02</pdfrwt>
<pdfrwt beam="2">  1       21 0.47345169E-03 0.34524797E+02</pdfrwt>
<totfact> 0.25764702E+07</totfact>
</mgrwt>
</event>
<event>
 4    1  0.7499963E+004  0.3036827E+02  0.7546771E-02  0.1594053E+00
         21   -1    0    0  503  502  0.00000000000E+00  0.00000000000E+00  0.26755645117E+02  0.26755645117E+02  0.00000000000E+00 0. -1.
         21   -1    0    0  501  503 -0.00000000000E+00 -0.00000000000E+00 -0.38090586501E+02  0.38090586501E+02  0.00000000000E+00 0. -1.
          5    1    1    2  501    0  0.99232268503E+01 -0.28701243547E+02 -0.15665500788E+02  0.34170743732E+02  0.00000000000E+00 0. -1.
         -5    1    1    2    0  502 -0.99232268503E+01  0.28701243547E+02  0.43305594048E+01  0.30675487886E+02  0.00000000000E+00 0.  1.
<mgrwt>
<rscale>  2 0.30368270E+02</rscale>
<asrwt>0</asrwt>
<pdfrwt beam="1">  1       21 0.41162531E-02 0.30368270E+02</pdfrwt>
<pdfrwt beam="2">  1       21 0.58600902E-02 0.30368270E+02</pdfrwt>
<totfact> 0.57972484E+07</totfact>
</mgrwt>
</event>
<event>
 4    1  0.7499963E+004  0.2860203E+02  0.7546771E-02  0.1614076E+00
         21   -1    0    0  503  502  0.00000000000E+00  0.00000000000E+00  0.88313614572E+01  0.88313614572E+01  0.00000000000E+00 0.  1.
         21   -1    0    0  501  503 -0.00000000000E+00 -0.00000000000E+00 -0.98179264923E+02  0.98179264923E+02  0.00000000000E+00 0.  1.
          2    1    1    2  501    0  0.18115598899E+02 -0.22133706334E+02 -0.31956922460E+02  0.42887303163E+02  0.00000000000E+00 0.  1.
         -2    1    1    2    0  502 -0.18115598899E+02  0.22133706334E+02 -0.57390981006E+02  0.64123323217E+02  0.00000000000E+00 0. -1.
<mgrwt>
<rscale>  2 0.28602026E+02</rscale>
<asrwt>0</asrwt>
<pdfrwt beam="1">  1       21 0.13586709E-02 0.28602026E+02</pdfrwt>
<pdfrwt beam="2">  1       21 0.15104503E-01 0.28602026E+02</pdfrwt>
<totfact> 0.66419493E+07</totfact>
</mgrwt>
</event>
<event>
 4    1  0.7499963E+004  0.2752725E+02  0.7546771E-02  0.1627149E+00
         21   -1    0    0  503  502  0.00000000000E+00  0.00000000000E+00  0.37083174101E+02  0.37083174101E+02  0.00000000000E+00 0.  1.
         21   -1    0    0  501  503 -0.00000000000E+00 -0.00000000000E+00 -0.21203105427E+02  0.21203105427E+02  0.00000000000E+00 0.  1.
          1    1    1    2  501    0 -0.72123326739E+01 -0.26565611031E+02  0.13491294279E+02  0.30655577851E+02  0.00000000000E+00 0. -1.
         -1    1    1    2    0  502  0.72123326739E+01  0.26565611031E+02  0.23887743946E+01  0.27630701677E+02  0.00000000000E+00 0.  1.
<mgrwt>
<rscale>  2 0.27527249E+02</rscale>
<asrwt>0</asrwt>
<pdfrwt beam="1">  1       21 0.57051037E-02 0.27527249E+02</pdfrwt>
<pdfrwt beam="2">  1       21 0.32620162E-02 0.27527249E+02</pdfrwt>
<totfact> 0.85448309E+07</totfact>
</mgrwt>
</event>
<event>
 4    1  0.7499963E+004  0.2288574E+02  0.7546771E-02  0.1693369E+00
         21   -1    0    0  503  502  0.00000000000E+00  0.00000000000E+00  0.62044717079E+01  0.62044717079E+01  0.00000000000E+00 0. -1.
         21   -1    0    0  501  503 -0.00000000000E+00 -0.00000000000E+00 -0.92579275970E+02  0.92579275970E+02  0.00000000000E+00 0. -1.
          2    1    1    2  501    0  0.58781216983E+01 -0.22117974714E+02 -0.28520817897E+02  0.36567665685E+02  0.00000000000E+00 0.  1.
         -2    1    1    2    0  502 -0.58781216983E+01  0.22117974714E+02 -0.57853986365E+02  0.62216081993E+02  0.00000000000E+00 0. -1.
<mgrwt>
<rscale>  2 0.22885741E+02</rscale>
<asrwt>0</asrwt>
<pdfrwt beam="1">  1       21 0.95453414E-03 0.22885741E+02</pdfrwt>
<pdfrwt beam="2">  1       21 0.14242965E-01 0.22885741E+02</pdfrwt>
<totfact> 0.11823459E+08</totfact>
</mgrwt>
</event>
<event>
 4    1  0.7499963E+004  0.2178466E+02  0.7546771E-02  0.1712003E+00
         21   -1    0    0  501  502  0.00000000000E+00  0.00000000000E+00  0.11818307798E+02  0.11818307798E+02  0.00000000000E+00 0. -1.
         21   -1    0    0  502  503 -0.00000000000E+00 -0.00000000000E+00 -0.40329087724E+02  0.40329087724E+02  0.00000000000E+00 0. -1.
          1    1    1    2  501    0 -0.21626276436E+02  0.26221244868E+01 -0.15965461072E+02  0.27008652624E+02  0.00000000000E+00 0. -1.
         -1    1    1    2    0  503  0.21626276436E+02 -0.26221244868E+01 -0.12545318855E+02  0.25138742898E+02  0.00000000000E+00 0.  1.
<mgrwt>
<rscale>  2 0.21784659E+02</rscale>
<asrwt>0</asrwt>
<pdfrwt beam="1">  1       21 0.18182011E-02 0.21784659E+02</pdfrwt>
<pdfrwt beam="2">  1       21 0.62044752E-02 0.21784659E+02</pdfrwt>
<totfact> 0.17277413E+08</totfact>
</mgrwt>
</event>
<event>
 4    1  0.7499963E+004  0.2070602E+02  0.7546771E-02  0.1731642E+00
         21   -1    0    0  501  502  0.00000000000E+00  0.00000000000E+00  0.65523413052E+01  0.65523413052E+01  0.00000000000E+00 0.  1.
         21   -1    0    0  502  503 -0.00000000000E+00 -0.00000000000E+00 -0.66095442725E+02  0.66095442725E+02  0.00000000000E+00 0.  1.
          4    1    1    2  501    0  0.20295099939E+02  0.41046430804E+01 -0.33408099372E+02  0.39304456236E+02  0.00000000000E+00 0. -1.
         -4    1    1    2    0  503 -0.20295099939E+02 -0.41046430804E+01 -0.26135002048E+02  0.33343327794E+02  0.00000000000E+00 0.  1.
<mgrwt>
<rscale>  2 0.20706018E+02</rscale>
<asrwt>0</asrwt>
<pdfrwt beam="1">  1       21 0.10080525E-02 0.20706018E+02</pdfrwt>
<pdfrwt beam="2">  1       21 0.10168530E-01 0.20706018E+02</pdfrwt>
<totfact> 0.18567177E+08</totfact>
</mgrwt>
</event>
<event>
 4    1  0.7499963E+004  0.2075554E+02  0.7546771E-02  0.1730708E+00
         21   -1    0    0  501  502  0.00000000000E+00  0.00000000000E+00  0.44438145862E+02  0.44438145862E+02  0.00000000000E+00 0. -1.
         21   -1    0    0  502  503 -0.00000000000E+00 -0.00000000000E+00 -0.12075078879E+02  0.12075078879E+02  0.00000000000E+00 0. -1.
          1    1    1    2  501    0 -0.20753988925E+02  0.25336614169E+00  0.36344206447E+01  0.21071337502E+02  0.00000000000E+00 0.  1.
         -1    1    1    2    0  503  0.20753988925E+02 -0.25336614169E+00  0.28728646338E+02  0.35441887239E+02  0.00000000000E+00 0. -1.
<mgrwt>
<rscale>  2 0.20755535E+02</rscale>
<asrwt>0</asrwt>
<pdfrwt beam="1">  1       21 0.68366378E-02 0.20755535E+02</pdfrwt>
<pdfrwt beam="2">  1       21 0.18577045E-02 0.20755535E+02</pdfrwt>
<totfact> 0.14092087E+08</totfact>
</mgrwt>
</event>
<event>
 4    1  0.7499963E+004  0.2386217E+02  0.7546771E-02  0.1677904E+00
         21   -1    0    0  503  502  0.00000000000E+00  0.00000000000E+00  0.70698223865E+02  0.70698223865E+02  0.00000000000E+00 0. -1.
         21   -1    0    0  501  503 -0.00000000000E+00 -0.00000000000E+00 -0.92742196455E+01  0.92742196455E+01  0.00000000000E+00 0. -1.
          1    1    1    2  501    0  0.12461092933E+02  0.20350048803E+02  0.45216113286E+02  0.51126316355E+02  0.00000000000E+00 0.  1.
         -1    1    1    2    0  502 -0.12461092933E+02 -0.20350048803E+02  0.16207890933E+02  0.28846127155E+02  0.00000000000E+00 0. -1.
<mgrwt>
<rscale>  2 0.23862173E+02</rscale>
<asrwt>0</asrwt>
<pdfrwt beam="1">  1       21 0.10876650E-01 0.23862173E+02</pdfrwt>
<pdfrwt beam="2">  1       21 0.14268031E-02 0.23862173E+02</pdfrwt>
<totfact> 0.10260194E+08</totfact>
</mgrwt>
</event>
<event>
 4    1  0.7499963E+004  0.2212756E+02  0.7546771E-02  0.1706055E+00
         21   -1    0    0  503  502  0.00000000000E+00  0.00000000000E+00  0.14044551265E+03  0.14044551265E+03  0.00000000000E+00 0.  1.
         21   -1    0    0  501  503 -0.00000000000E+00 -0.00000000000E+00 -0.35903313257E+01  0.35903313257E+01  0.00000000000E+00 0.  1.
          5    1    1    2  501    0 -0.19852027170E+02 -0.97737370832E+01  0.56165950259E+02  0.60367564866E+02  0.00000000000E+00 0. -1.
         -5    1    1    2    0  502  0.19852027170E+02  0.97737370832E+01  0.80689231070E+02  0.83668279115E+02  0.00000000000E+00 0.  1.
<mgrwt>
<rscale>  2 0.22127560E+02</rscale>
<asrwt>0</asrwt>
<pdfrwt beam="1">  1       21 0.21606998E-01 0.22127560E+02</pdfrwt>
<pdfrwt beam="2">  1       21 0.55235877E-03 0.22127560E+02</pdfrwt>
<totfact> 0.12884269E+08</totfact>
</mgrwt>
</event>
<event>
 4    1  0.7499963E+004  0.2599966E+02  0.7546771E-02  0.1647045E+00
         21   -1    0    0  501  502  0.00000000000E+00  0.00000000000E+00  0.45844905973E+02  0.45844905973E+02  0.00000000000E+00 0. -1.
         21   -1    0    0  502  503 -0.00000000000E+00 -0.00000000000E+00 -0.15539868943E+02  0.15539868943E+02  0.00000000000E+00 0. -1.
          3    1    1    2  501    0 -0.15020369080E+02  0.21221947050E+02  0.22094099955E+02  0.34119375386E+02  0.00000000000E+00 0. -1.
         -3    1    1    2    0  503  0.15020369080E+02 -0.21221947050E+02  0.82109370749E+01  0.27265399530E+02  0.00000000000E+00 0.  1.
<mgrwt>
<rscale>  2 0.25999664E+02</rscale>
<asrwt>0</asrwt>
<pdfrwt beam="1">  1       21 0.70530624E-02 0.25999664E+02</pdfrwt>
<pdfrwt beam="2">  1       21 0.23907491E-02 0.25999664E+02</pdfrwt>
<totfact> 0.96998093E+07</totfact>
</mgrwt>
</event>
<event>
 4    1  0.7499963E+004  0.3697446E+02  0.7546771E-02  0.1531735E+00
         21   -1    0    0  501  502  0.00000000000E+00  0.00000000000E+00  0.80626467118E+02  0.80626467118E+02  0.00000000000E+00 0. -1.
         21   -1    0    0  502  503 -0.00000000000E+00 -0.00000000000E+00 -0.19291052779E+02  0.19291052779E+02  0.00000000000E+00 0. -1.
          1    1    1    2  501    0  0.93728561992E+01  0.35766743763E+02  0.13286785997E+02  0.39289299750E+02  0.00000000000E+00 0. -1.
         -1    1    1    2    0  503 -0.93728561992E+01 -0.35766743763E+02  0.48048628341E+02  0.60628220147E+02  0.00000000000E+00 0.  1.
<mgrwt>
<rscale>  2 0.36974456E+02</rscale>
<asrwt>0</asrwt>
<pdfrwt beam="1">  1       21 0.12404072E-01 0.36974456E+02</pdfrwt>
<pdfrwt beam="2">  1       21 0.29678543E-02 0.36974456E+02</pdfrwt>
<totfact> 0.29147010E+07</totfact>
</mgrwt>
</event>
<event>
 4    1  0.7499963E+004  0.2790522E+02  0.7546771E-02  0.1622469E+00
         21   -1    0    0  503  502  0.00000000000E+00  0.00000000000E+00  0.22473706009E+02  0.22473706009E+02  0.00000000000E+00 0. -1.
         21   -1    0    0  501  503 -0.00000000000E+00 -0.00000000000E+00 -0.42663992225E+02  0.42663992225E+02  0.00000000000E+00 0. -1.
          3    1    1    2  501    0 -0.18078221786E+02 -0.21257454535E+02 -0.24211125866E+02  0.36944283617E+02  0.00000000000E+00 0.  1.
         -3    1    1    2    0  502  0.18078221786E+02  0.21257454535E+02  0.40208396496E+01  0.28193414617E+02  0.00000000000E+00 0. -1.
<mgrwt>
<rscale>  2 0.27905223E+02</rscale>
<asrwt>0</asrwt>
<pdfrwt beam="1">  1       21 0.34574932E-02 0.27905223E+02</pdfrwt>
<pdfrwt beam="2">  1       21 0.65636912E-02 0.27905223E+02</pdfrwt>
<totfact> 0.62337057E+07</totfact>
</mgrwt>
</event>
<event>
 4    1  0.7499963E+004  0.2021613E+02  0.7546771E-02  0.1741064E+00
         21   -1    0    0  503  502  0.00000000000E+00  0.00000000000E+00  0.94723509550E+02  0.94723509550E+02  0.00000000000E+00 0. -1.
         21   -1    0    0  501  503 -0.00000000000E+00 -0.00000000000E+00 -0.56416966611E+01  0.56416966611E+01  0.00000000000E+00 0. -1.
          2    1    1    2  501    0 -0.19913997415E+02 -0.34820645207E+01  0.68879923330E+02  0.71785346028E+02  0.00000000000E+00 0.  1.
         -2    1    1    2    0  502  0.19913997415E+02  0.34820645207E+01  0.20201889559E+02  0.28579860184E+02  0.00000000000E+00 0. -1.
<mgrwt>
<rscale>  2 0.20216134E+02</rscale>
<asrwt>0</asrwt>
<pdfrwt beam="1">  1       21 0.14572846E-01 0.20216134E+02</pdfrwt>
<pdfrwt beam="2">  1       21 0.86795340E-03 0.20216134E+02</pdfrwt>
<totfact> 0.12643080E+08</totfact>
</mgrwt>
</event>
<event>
 4    1  0.7499963E+004  0.5250153E+02  0.7546771E-02  0.1432298E+00
         21   -1    0    0  503  502  0.00000000000E+00  0.00000000000E+00  0.46681930507E+02  0.46681930507E+02  0.00000000000E+00 0.  1.
         21   -1    0    0  501  503 -0.00000000000E+00 -0.00000000000E+00 -0.65675986926E+02  0.65675986926E+02  0.00000000000E+00 0.  1.
          2    1    1    2  501    0 -0.47009180168E+02  0.23378360955E+02 -0.27345704387E+02  0.59196269557E+02  0.00000000000E+00 0. -1.
         -2    1    1    2    0  502  0.47009180168E+02 -0.23378360955E+02  0.83516479676E+01  0.53161647876E+02  0.00000000000E+00 0.  1.
<mgrwt>
<rscale>  2 0.52501531E+02</rscale>
<asrwt>0</asrwt>
<pdfrwt beam="1">  1       21 0.71818355E-02 0.52501531E+02</pdfrwt>
<pdfrwt beam="2">  1       21 0.10103998E-01 0.52501531E+02</pdfrwt>
<totfact> 0.10370269E+07</totfact>
</mgrwt>
</event>
<event>
 4    1  0.7499963E+004  0.2360619E+02  0.7546771E-02  0.1681868E+00
         21   -1    0    0  503  502  0.00000000000E+00  0.00000000000E+00  0.11741443577E+02  0.11741443577E+02  0.00000000000E+00 0. -1.
         21   -1    0    0  501  503 -0.00000000000E+00 -0.00000000000E+00 -0.51065682652E+02  0.51065682652E+02  0.00000000000E+00 0. -1.
          3    1    1    2  501    0  0.38320959520E+01 -0.23293070924E+02 -0.28006453755E+02  0.36628043414E+02  0.00000000000E+00 0.  1.
         -3    1    1    2    0  502 -0.38320959520E+01  0.23293070924E+02 -0.11317785320E+02  0.26179082814E+02  0.00000000000E+00 0. -1.
<mgrwt>
<rscale>  2 0.23606188E+02</rscale>
<asrwt>0</asrwt>
<pdfrwt beam="1">  1       21 0.18063759E-02 0.23606188E+02</pdfrwt>
<pdfrwt beam="2">  1       21 0.78562589E-02 0.23606188E+02</pdfrwt>
<totfact> 0.12202297E+08</totfact>
</mgrwt>
</event>
<event>
 4    1  0.7499963E+004  0.3445820E+02  0.7546771E-02  0.1553465E+00
         21   -1    0    0  501  502  0.00000000000E+00  0.00000000000E+00  0.32463768291E+02  0.32463768291E+02  0.00000000000E+00 0.  1.
         21   -1    0    0  502  503 -0.00000000000E+00 -0.00000000000E+00 -0.12772783674E+03  0.12772783674E+03  0.00000000000E+00 0.  1.
          4    1    1    2  501    0 -0.28778863730E+02  0.18951110044E+02  0.20031034158E+02  0.39857369443E+02  0.00000000000E+00 0. -1.
         -4    1    1    2    0  503  0.28778863730E+02 -0.18951110044E+02 -0.11529510261E+03  0.12033423559E+03  0.00000000000E+00 0.  1.
<mgrwt>
<rscale>  2 0.34458200E+02</rscale>
<asrwt>0</asrwt>
<pdfrwt beam="1">  1       21 0.49944258E-02 0.34458200E+02</pdfrwt>
<pdfrwt beam="2">  1       21 0.19650437E-01 0.34458200E+02</pdfrwt>
<totfact> 0.56369705E+06</totfact>
</mgrwt>
</event>
<event>
 4    1  0.7499963E+004  0.2231600E+02  0.7546771E-02  0.1702844E+00
         21   -1    0    0  503  502  0.00000000000E+00  0.00000000000E+00  0.16006039344E+03  0.16006039344E+03  0.00000000000E+00 0.  1.
         21   -1    0    0  501  503 -0.00000000000E+00 -0.00000000000E+00 -0.33086406931E+01  0.33086406931E+01  0.00000000000E+00 0.  1.
          3    1    1    2  501    0 -0.17158003305E+02  0.14269079775E+02  0.98322507142E+02  0.10082320728E+03  0.00000000000E+00 0.  1.
         -3    1    1    2    0  502  0.17158003305E+02 -0.14269079775E+02  0.58429245601E+02  0.62545826851E+02  0.00000000000E+00 0. -1.
<mgrwt>
<rscale>  2 0.22315997E+02</rscale>
<asrwt>0</asrwt>
<pdfrwt beam="1">  1       21 0.24624670E-01 0.22315997E+02</pdfrwt>
<pdfrwt beam="2">  1       21 0.50902177E-03 0.22315997E+02</pdfrwt>
<totfact> 0.11566160E+08</totfact>
</mgrwt>
</event>
<event>
 4    1  0.7499963E+004  0.2026141E+02  0.7546771E-02  0.1740179E+00
         21   -1    0    0  503  502  0.00000000000E+00  0.00000000000E+00  0.19799048717E+03  0.19799048717E+03  0.00000000000E+00 0. -1.
         21   -1    0    0  501  503 -0.00000000000E+00 -0.00000000000E+00 -0.23644489244E+01  0.23644489244E+01  0.00000000000E+00 0. -1.
          2    1    1    2  501    0 -0.68877278618E+01 -0.19054756430E+02  0.62669407212E+02  0.65863336827E+02  0.00000000000E+00 0. -1.
         -2    1    1    2    0  502  0.68877278618E+01  0.19054756430E+02  0.13295663103E+03  0.13449159926E+03  0.00000000000E+00 0.  1.
<mgrwt>
<rscale>  2 0.20261405E+02</rscale>
<asrwt>0</asrwt>
<pdfrwt beam="1">  1       21 0.30460062E-01 0.20261405E+02</pdfrwt>
<pdfrwt beam="2">  1       21 0.36376153E-03 0.20261405E+02</pdfrwt>
<totfact> 0.12571794E+08</totfact>
</mgrwt>
</event>
<event>
 4    1  0.7499963E+004  0.2270412E+02  0.7546771E-02  0.1696352E+00
         21   -1    0    0  501  502  0.00000000000E+00  0.00000000000E+00  0.36915954930E+01  0.36915954930E+01  0.00000000000E+00 0. -1.
         21   -1    0    0  502  503 -0.00000000000E+00 -0.00000000000E+00 -0.14108078281E+03  0.14108078281E+03  0.00000000000E+00 0. -1.
          5    1    1    2  501    0  0.18576670271E+02  0.13053138913E+02 -0.76021580497E+02  0.79339509799E+02  0.00000000000E+00 0. -1.
         -5    1    1    2    0  503 -0.18576670271E+02 -0.13053138913E+02 -0.61367606815E+02  0.65432868500E+02  0.00000000000E+00 0.  1.
<mgrwt>
<rscale>  2 0.22704121E+02</rscale>
<asrwt>0</asrwt>
<pdfrwt beam="1">  1       21 0.56793780E-03 0.22704121E+02</pdfrwt>
<pdfrwt beam="2">  1       21 0.21704734E-01 0.22704121E+02</pdfrwt>
<totfact> 0.12358104E+08</totfact>
</mgrwt>
</event>
<event>
 4    1  0.7499963E+004  0.2247405E+02  0.7546771E-02  0.1700180E+00
         21   -1    0    0  501  502  0.00000000000E+00  0.00000000000E+00  0.23490248751E+01  0.23490248751E+01  0.00000000000E+00 0.  1.
         21   -1    0    0  502  503 -0.00000000000E+00 -0.00000000000E+00 -0.21502032748E+03  0.21502032748E+03  0.00000000000E+00 0.  1.
          2    1    1    2  501    0  0.66233463080E+01  0.21475901965E+02 -0.10599313603E+03  0.10834956376E+03  0.00000000000E+00 0.  1.
         -2    1    1    2    0  503 -0.66233463080E+01 -0.21475901965E+02 -0.10667816657E+03  0.10901978859E+03  0.00000000000E+00 0. -1.
<mgrwt>
<rscale>  2 0.22474054E+02</rscale>
<asrwt>0</asrwt>
<pdfrwt beam="1">  1       21 0.36138845E-03 0.22474054E+02</pdfrwt>
<pdfrwt beam="2">  1       21 0.33080050E-01 0.22474054E+02</pdfrwt>
<totfact> 0.11240536E+08</totfact>
</mgrwt>
</event>
<event>
 4    1  0.7499963E+004  0.3458068E+02  0.7546771E-02  0.1552356E+00
         21   -1    0    0  503  502  0.00000000000E+00  0.00000000000E+00  0.34621745168E+02  0.34621745168E+02  0.00000000000E+00 0. -1.
         21   -1    0    0  501  503 -0.00000000000E+00 -0.00000000000E+00 -0.38606511920E+02  0.38606511920E+02  0.00000000000E+00 0. -1.
          4    1    1    2  501    0  0.33013305319E+02  0.10292972490E+02 -0.13875958887E+02  0.37260781605E+02  0.00000000000E+00 0. -1.
         -4    1    1    2    0  502 -0.33013305319E+02 -0.10292972490E+02  0.98911921352E+01  0.35967475483E+02  0.00000000000E+00 0.  1.
<mgrwt>
<rscale>  2 0.34580683E+02</rscale>
<asrwt>0</asrwt>
<pdfrwt beam="1">  1       21 0.53264223E-02 0.34580683E+02</pdfrwt>
<pdfrwt beam="2">  1       21 0.59394634E-02 0.34580683E+02</pdfrwt>
<totfact> 0.38523535E+07</totfact>
</mgrwt>
</event>
<event>
 4    1  0.7499963E+004  0.2852800E+02  0.7546771E-02  0.1614954E+00
         21   -1    0    0  503  502  0.00000000000E+00  0.00000000000E+00  0.81518483968E+02  0.81518483968E+02  0.00000000000E+00 0. -1.
         21   -1    0    0  501  503 -0.00000000000E+00 -0.00000000000E+00 -0.11102373621E+02  0.11102373621E+02  0.00000000000E+00 0. -1.
          1    1    1    2  501    0 -0.15254744740E+02  0.24106835751E+02  0.20507126294E+02  0.35133872486E+02  0.00000000000E+00 0. -1.
         -1    1    1    2    0  502  0.15254744740E+02 -0.24106835751E+02  0.49908984053E+02  0.57486985103E+02  0.00000000000E+00 0.  1.
<mgrwt>
<rscale>  2 0.28528000E+02</rscale>
<asrwt>0</asrwt>
<pdfrwt beam="1">  1       21 0.12541305E-01 0.28528000E+02</pdfrwt>
<pdfrwt beam="2">  1       21 0.17080575E-02 0.28528000E+02</pdfrwt>
<totfact> 0.64201213E+07</totfact>
</mgrwt>
</event>
<event>
 4    1  0.7499963E+004  0.2146983E+02  0.7546771E-02  0.1717586E+00
         21   -1    0    0  503  502  0.00000000000E+00  0.00000000000E+00  0.10247798809E+01  0.10247798809E+01  0.00000000000E+00 0. -1.
         21   -1    0    0  501  503 -0.00000000000E+00 -0.00000000000E+00 -0.47333553801E+03  0.47333553801E+03  0.00000000000E+00 0. -1.
          5    1    1    2  501    0  0.20571239228E+02  0.61463630225E+01 -0.18327594642E+03  0.18452920148E+03  0.00000000000E+00 0. -1.
         -5    1    1    2    0  502 -0.20571239228E+02 -0.61463630225E+01 -0.28903481171E+03  0.28983111642E+03  0.00000000000E+00 0.  1.
<mgrwt>
<rscale>  2 0.21469831E+02</rscale>
<asrwt>0</asrwt>
<pdfrwt beam="1">  1       21 0.15765871E-03 0.21469831E+02</pdfrwt>
<pdfrwt beam="2">  1       21 0.72820728E-01 0.21469831E+02</pdfrwt>
<totfact> 0.79903045E+07</totfact>
</mgrwt>
</event>
<event>
 4    1  0.7499963E+004  0.2356921E+02  0.7546771E-02  0.1682446E+00
         21   -1    0    0  501  502  0.00000000000E+00  0.00000000000E+00  0.57424533889E+02  0.57424533889E+02  0.00000000000E+00 0.  1.
         21   -1    0    0  502  503 -0.00000000000E+00 -0.00000000000E+00 -0.10041526542E+02  0.10041526542E+02  0.00000000000E+00 0.  1.
          3    1    1    2  501    0  0.21391339116E+02 -0.98953665887E+01  0.30147711075E+02  0.38267377127E+02  0.00000000000E+00 0. -1.
         -3    1    1    2    0  503 -0.21391339116E+02  0.98953665887E+01  0.17235296272E+02  0.29198683304E+02  0.00000000000E+00 0.  1.
<mgrwt>
<rscale>  2 0.23569210E+02</rscale>
<asrwt>0</asrwt>
<pdfrwt beam="1">  1       21 0.88345435E-02 0.23569210E+02</pdfrwt>
<pdfrwt beam="2">  1       21 0.15448503E-02 0.23569210E+02</pdfrwt>
<totfact> 0.12778847E+08</totfact>
</mgrwt>
</event>
<event>
 4    1  0.7499963E+004  0.4175364E+02  0.7546771E-02  0.1495689E+00
         21   -1    0    0  501  502  0.00000000000E+00  0.00000000000E+00  0.37330719445E+01  0.37330719445E+01  0.00000000000E+00 0.  1.
         21   -1    0    0  502  503 -0.00000000000E+00 -0.00000000000E+00 -0.46729648871E+03  0.46729648871E+03  0.00000000000E+00 0.  1.
          5    1    1    2  501    0  0.41458750105E+02  0.49536047700E+01 -0.23765597808E+03  0.24129593879E+03  0.00000000000E+00 0. -1.
         -5    1    1    2    0  503 -0.41458750105E+02 -0.49536047700E+01 -0.22590743868E+03  0.22973362186E+03  0.00000000000E+00 0.  1.
<mgrwt>
<rscale>  2 0.41753636E+02</rscale>
<asrwt>0</asrwt>
<pdfrwt beam="1">  1       21 0.57431855E-03 0.41753636E+02</pdfrwt>
<pdfrwt beam="2">  1       21 0.71891794E-01 0.41753636E+02</pdfrwt>
<totfact> 0.13878564E+07</totfact>
</mgrwt>
</event>
<event>
 4    1  0.7499963E+004  0.2011571E+02  0.7546771E-02  0.1743037E+00
         21   -1    0    0  503  502  0.00000000000E+00  0.00000000000E+00  0.21915322832E+03  0.21915322832E+03  0.00000000000E+00 0. -1.
         21   -1    0    0  501  503 -0.00000000000E+00 -0.00000000000E+00 -0.18869887777E+01  0.18869887777E+01  0.00000000000E+00 0. -1.
          1    1    1    2  501    0 -0.51876136763E+01  0.19435293451E+02  0.92421666118E+02  0.94585444626E+02  0.00000000000E+00 0. -1.
         -1    1    1    2    0  502  0.51876136763E+01 -0.19435293451E+02  0.12484457342E+03  0.12645477247E+03  0.00000000000E+00 0.  1.
<mgrwt>
<rscale>  2 0.20115714E+02</rscale>
<asrwt>0</asrwt>
<pdfrwt beam="1">  1       21 0.33715861E-01 0.20115714E+02</pdfrwt>
<pdfrwt beam="2">  1       21 0.29030614E-03 0.20115714E+02</pdfrwt>
<totfact> 0.14469241E+08</totfact>
</mgrwt>
</event>
<event>
 4    1  0.7499963E+004  0.4669089E+02  0.7546771E-02  0.1464054E+00
         21   -1    0    0  501  502  0.00000000000E+00  0.00000000000E+00  0.77614547638E+03  0.77614547638E+03  0.00000000000E+00 0. -1.
         21   -1    0    0  502  503 -0.00000000000E+00 -0.00000000000E+00 -0.57471483961E+01  0.57471483961E+01  0.00000000000E+00 0. -1.
          5    1    1    2  501    0  0.63323271700E+01  0.46259490659E+02  0.66473817444E+03  0.66637592948E+03  0.00000000000E+00 0. -1.
         -5    1    1    2    0  503 -0.63323271700E+01 -0.46259490659E+02  0.10566015355E+03  0.11551669529E+03  0.00000000000E+00 0.  1.
<mgrwt>
<rscale>  2 0.46690886E+02</rscale>
<asrwt>0</asrwt>
<pdfrwt beam="1">  1       21 0.11940691E+00 0.46690886E+02</pdfrwt>
<pdfrwt beam="2">  1       21 0.88417729E-03 0.46690886E+02</pdfrwt>
<totfact> 0.23618022E+06</totfact>
</mgrwt>
</event>
<event>
 4    1  0.7499963E+004  0.2660658E+02  0.7546771E-02  0.1638943E+00
         21   -1    0    0  503  502  0.00000000000E+00  0.00000000000E+00  0.34740159644E+02  0.34740159644E+02  0.00000000000E+00 0.  1.
         21   -1    0    0  501  503 -0.00000000000E+00 -0.00000000000E+00 -0.26470303863E+02  0.26470303863E+02  0.00000000000E+00 0.  1.
          3    1    1    2  501    0 -0.14036502796E+02 -0.22602801692E+02 -0.10548672317E+02  0.28621400083E+02  0.00000000000E+00 0. -1.
         -3    1    1    2    0  502  0.14036502796E+02  0.22602801692E+02  0.18818528098E+02  0.32589063424E+02  0.00000000000E+00 0.  1.
<mgrwt>
<rscale>  2 0.26606579E+02</rscale>
<asrwt>0</asrwt>
<pdfrwt beam="1">  1       21 0.53446400E-02 0.26606579E+02</pdfrwt>
<pdfrwt beam="2">  1       21 0.40723544E-02 0.26606579E+02</pdfrwt>
<totfact> 0.66287199E+07</totfact>
</mgrwt>
</event>
<event>
 4    1  0.7499963E+004  0.2035037E+02  0.7546771E-02  0.1738449E+00
         21   -1    0    0  503  502  0.00000000000E+00  0.00000000000E+00  0.11152576419E+03  0.11152576419E+03  0.00000000000E+00 0. -1.
         21   -1    0    0  501  503 -0.00000000000E+00 -0.00000000000E+00 -0.41603381145E+01  0.41603381145E+01  0.00000000000E+00 0. -1.
          5    1    1    2  501    0 -0.18193174701E+02 -0.91184314913E+01  0.72641952789E+02  0.75438655234E+02  0.00000000000E+00 0. -1.
         -5    1    1    2    0  502  0.18193174701E+02  0.91184314913E+01  0.34723473283E+02  0.40247447067E+02  0.00000000000E+00 0.  1.
<mgrwt>
<rscale>  2 0.20350366E+02</rscale>
<asrwt>0</asrwt>
<pdfrwt beam="1">  1       21 0.17157808E-01 0.20350366E+02</pdfrwt>
<pdfrwt beam="2">  1       21 0.64005210E-03 0.20350366E+02</pdfrwt>
<totfact> 0.15078007E+08</totfact>
</mgrwt>
</event>
<event>
 4    1  0.7499963E+004  0.2249994E+02  0.7546771E-02  0.1699747E+00
         21   -1    0    0  503  502  0.00000000000E+00  0.00000000000E+00  0.27888348639E+02  0.27888348639E+02  0.00000000000E+00 0. -1.
         21   -1    0    0  501  503 -0.00000000000E+00 -0.00000000000E+00 -0.18911420319E+02  0.18911420319E+02  0.00000000000E+00 0. -1.
          1    1    1    2  501    0  0.13231341862E+02  0.18198318579E+02  0.91756170471E+01  0.24298953779E+02  0.00000000000E+00 0.  1.
         -1    1    1    2    0  502 -0.13231341862E+02 -0.18198318579E+02 -0.19868872739E+00  0.22500815180E+02  0.00000000000E+00 0. -1.
<mgrwt>
<rscale>  2 0.22499938E+02</rscale>
<asrwt>0</asrwt>
<pdfrwt beam="1">  1       21 0.42905152E-02 0.22499938E+02</pdfrwt>
<pdfrwt beam="2">  1       21 0.29094493E-02 0.22499938E+02</pdfrwt>
<totfact> 0.15222338E+08</totfact>
</mgrwt>
</event>
<event>
 4    1  0.7499963E+004  0.2093215E+02  0.7546771E-02  0.1727402E+00
         21   -1    0    0  503  502  0.00000000000E+00  0.00000000000E+00  0.54527956486E+00  0.54527956486E+00  0.00000000000E+00 0.  1.
         21   -1    0    0  501  503 -0.00000000000E+00 -0.00000000000E+00 -0.85019721600E+03  0.85019721600E+03  0.00000000000E+00 0.  1.
          2    1    1    2  501    0 -0.65803525995E+01 -0.19870928295E+02 -0.32517991424E+03  0.32585292918E+03  0.00000000000E+00 0. -1.
         -2    1    1    2    0  502  0.65803525995E+01  0.19870928295E+02 -0.52447202220E+03  0.52488956639E+03  0.00000000000E+00 0.  1.
<mgrwt>
<rscale>  2 0.20932148E+02</rscale>
<asrwt>0</asrwt>
<pdfrwt beam="1">  1       21 0.83888947E-04 0.20932148E+02</pdfrwt>
<pdfrwt beam="2">  1       21 0.13079991E+00 0.20932148E+02</pdfrwt>
<totfact> 0.54715209E+07</totfact>
</mgrwt>
</event>
<event>
 4    1  0.7499963E+004  0.2070866E+02  0.7546771E-02  0.1731592E+00
         21   -1    0    0  501  502  0.00000000000E+00  0.00000000000E+00  0.36251286914E+02  0.36251286914E+02  0.00000000000E+00 0. -1.
         21   -1    0    0  502  503 -0.00000000000E+00 -0.00000000000E+00 -0.14058344727E+02  0.14058344727E+02  0.00000000000E+00 0. -1.
          1    1    1    2  501    0 -0.20504697240E+02  0.28992779158E+01  0.21111605975E+02  0.29572763283E+02  0.00000000000E+00 0.  1.
         -1    1    1    2    0  503  0.20504697240E+02 -0.28992779158E+01  0.10813362128E+01  0.20736868359E+02  0.00000000000E+00 0. -1.
<mgrwt>
<rscale>  2 0.20708656E+02</rscale>
<asrwt>0</asrwt>
<pdfrwt beam="1">  1       21 0.55771210E-02 0.20708656E+02</pdfrwt>
<pdfrwt beam="2">  1       21 0.21628223E-02 0.20708656E+02</pdfrwt>
<totfact> 0.15466329E+08</totfact>
</mgrwt>
</event>
<event>
 4    1  0.7499963E+004  0.3878477E+02  0.7546771E-02  0.1517350E+00
         21   -1    0    0  503  502  0.00000000000E+00  0.00000000000E+00  0.22852390749E+02  0.22852390749E+02  0.00000000000E+00 0. -1.
         21   -1    0    0  501  503 -0.00000000000E+00 -0.00000000000E+00 -0.65960406289E+02  0.65960406289E+02  0.00000000000E+00 0. -1.
          2    1    1    2  501    0 -0.37374398515E+01 -0.38604270551E+02 -0.23566135566E+02  0.45383046470E+02  0.00000000000E+00 0. -1.
         -2    1    1    2    0  502  0.37374398515E+01  0.38604270551E+02 -0.19541879975E+02  0.43429750568E+02  0.00000000000E+00 0.  1.
<mgrwt>
<rscale>  2 0.38784767E+02</rscale>
<asrwt>0</asrwt>
<pdfrwt beam="1">  1       21 0.35157525E-02 0.38784767E+02</pdfrwt>
<pdfrwt beam="2">  1       21 0.10147755E-01 0.38784767E+02</pdfrwt>
<totfact> 0.31581675E+07</totfact>
</mgrwt>
</event>
<event>
 4    1  0.7499963E+004  0.2148957E+02  0.7546771E-02  0.1717232E+00
         21   -1    0    0  501  502  0.00000000000E+00  0.00000000000E+00  0.10165392868E+03  0.10165392868E+03  0.00000000000E+00 0. -1.
         21   -1    0    0  502  503 -0.00000000000E+00 -0.00000000000E+00 -0.49166036976E+01  0.49166036976E+01  0.00000000000E+00 0. -1.
          5    1    1    2  501    0 -0.21042325601E+02 -0.43614305752E+01  0.63059622533E+02  0.66620699015E+02  0.00000000000E+00 0. -1.
         -5    1    1    2    0  503  0.21042325601E+02  0.43614305752E+01  0.33677702450E+02  0.39949833362E+02  0.00000000000E+00 0.  1.
<mgrwt>
<rscale>  2 0.21489568E+02</rscale>
<asrwt>0</asrwt>
<pdfrwt beam="1">  1       21 0.15639064E-01 0.21489568E+02</pdfrwt>
<pdfrwt beam="2">  1       21 0.75640065E-03 0.21489568E+02</pdfrwt>
<totfact> 0.14016287E+08</totfact>
</mgrwt>
</event>
<event>
 4    1  0.7499963E+004  0.2153142E+02  0.7546771E-02  0.1716484E+00
         21   -1    0    0  501  502  0.00000000000E+00  0.00000000000E+00  0.18191266057E+02  0.18191266057E+02  0.00000000000E+00 0. -1.
         21   -1    0    0  502  503 -0.00000000000E+00 -0.00000000000E+00 -0.38485015669E+02  0.38485015669E+02  0.00000000000E+00 0. -1.
          1    1    1    2  501    0  0.21024757743E+02  0.46434424491E+01  0.63233558187E+01  0.22440740290E+02  0.00000000000E+00 0. -1.
         -1    1    1    2    0  503 -0.21024757743E+02 -0.46434424491E+01 -0.26617105430E+02  0.34235541436E+02  0.00000000000E+00 0.  1.
<mgrwt>
<rscale>  2 0.21531419E+02</rscale>
<asrwt>0</asrwt>
<pdfrwt beam="1">  1       21 0.27986563E-02 0.21531419E+02</pdfrwt>
<pdfrwt beam="2">  1       21 0.59207717E-02 0.21531419E+02</pdfrwt>
<totfact> 0.95623903E+07</totfact>
</mgrwt>
</event>
<event>
 4    1  0.7499963E+004  0.2037567E+02  0.7546771E-02  0.1737959E+00
         21   -1    0    0  503  502  0.00000000000E+00  0.00000000000E+00  0.12767834316E+01  0.12767834316E+01  0.00000000000E+00 0. -1.
         21   -1    0    0  501  503 -0.00000000000E+00 -0.00000000000E+00 -0.33130390350E+03  0.33130390350E+03  0.00000000000E+00 0. -1.
          1    1    1    2  501    0  0.17733826925E+02 -0.10033908896E+02 -0.14238142978E+03  0.14383198355E+03  0.00000000000E+00 0. -1.
         -1    1    1    2    0  502 -0.17733826925E+02  0.10033908896E+02 -0.18764569028E+03  0.18874870338E+03  0.00000000000E+00 0.  1.
<mgrwt>
<rscale>  2 0.20375670E+02</rscale>
<asrwt>0</asrwt>
<pdfrwt beam="1">  1       21 0.19642825E-03 0.20375670E+02</pdfrwt>
<pdfrwt beam="2">  1       21 0.50969825E-01 0.20375670E+02</pdfrwt>
<totfact> 0.11717489E+08</totfact>
</mgrwt>
</event>
<event>
 4    1  0.7499963E+004  0.3924678E+02  0.7546771E-02  0.1513829E+00
         21   -1    0    0  501  502  0.00000000000E+00  0.00000000000E+00  0.94999225736E+02  0.94999225736E+02  0.00000000000E+00 0. -1.
         21   -1    0    0  502  503 -0.00000000000E+00 -0.00000000000E+00 -0.16342172776E+02  0.16342172776E+02  0.00000000000E+00 0. -1.
          2    1    1    2  501    0 -0.28135899419E+02 -0.27362033433E+02  0.34396702171E+02  0.52186615429E+02  0.00000000000E+00 0.  1.
         -2    1    1    2    0  503  0.28135899419E+02  0.27362033433E+02  0.44260350788E+02  0.59154783083E+02  0.00000000000E+00 0. -1.
<mgrwt>
<rscale>  2 0.39246780E+02</rscale>
<asrwt>0</asrwt>
<pdfrwt beam="1">  1       21 0.14615265E-01 0.39246780E+02</pdfrwt>
<pdfrwt beam="2">  1       21 0.25141805E-02 0.39246780E+02</pdfrwt>
<totfact> 0.28852706E+07</totfact>
</mgrwt>
</event>
<event>
 4    1  0.7499963E+004  0.2622121E+02  0.7546771E-02  0.1644056E+00
         21   -1    0    0  501  502  0.00000000000E+00  0.00000000000E+00  0.48497794094E+02  0.48497794094E+02  0.00000000000E+00 0.  1.
         21   -1    0    0  502  503 -0.00000000000E+00 -0.00000000000E+00 -0.14686855355E+02  0.14686855355E+02  0.00000000000E+00 0.  1.
          3    1    1    2  501    0  0.23462736330E+02  0.11706918117E+02  0.11019038125E+02  0.28442417778E+02  0.00000000000E+00 0. -1.
         -3    1    1    2    0  503 -0.23462736330E+02 -0.11706918117E+02  0.22791900614E+02  0.34742231671E+02  0.00000000000E+00 0.  1.
<mgrwt>
<rscale>  2 0.26221211E+02</rscale>
<asrwt>0</asrwt>
<pdfrwt beam="1">  1       21 0.74611990E-02 0.26221211E+02</pdfrwt>
<pdfrwt beam="2">  1       21 0.22595162E-02 0.26221211E+02</pdfrwt>
<totfact> 0.96800739E+07</totfact>
</mgrwt>
</event>
<event>
 4    1  0.7499963E+004  0.4260891E+02  0.7546771E-02  0.1489846E+00
         21   -1    0    0  503  502  0.00000000000E+00  0.00000000000E+00  0.32504919781E+02  0.32504919781E+02  0.00000000000E+00 0. -1.
         21   -1    0    0  501  503 -0.00000000000E+00 -0.00000000000E+00 -0.56197479665E+02  0.56197479665E+02  0.00000000000E+00 0. -1.
          2    1    1    2  501    0  0.18881555342E+02 -0.38196942466E+02 -0.83773413891E+01  0.43424640409E+02  0.00000000000E+00 0. -1.
         -2    1    1    2    0  502 -0.18881555342E+02  0.38196942466E+02 -0.15315218495E+02  0.45277759037E+02  0.00000000000E+00 0.  1.
<mgrwt>
<rscale>  2 0.42608914E+02</rscale>
<asrwt>0</asrwt>
<pdfrwt beam="1">  1       21 0.50007569E-02 0.42608914E+02</pdfrwt>
<pdfrwt beam="2">  1       21 0.86457660E-02 0.42608914E+02</pdfrwt>
<totfact> 0.23818539E+07</totfact>
</mgrwt>
</event>
<event>
 4    1  0.7499963E+004  0.2208451E+02  0.7546771E-02  0.1706795E+00
         21   -1    0    0  501  502  0.00000000000E+00  0.00000000000E+00  0.13182142962E+03  0.13182142962E+03  0.00000000000E+00 0.  1.
         21   -1    0    0  502  503 -0.00000000000E+00 -0.00000000000E+00 -0.37312557785E+01  0.37312557785E+01  0.00000000000E+00 0.  1.
          2    1    1    2  501    0 -0.19368797065E+02 -0.10610149955E+02  0.57831576580E+02  0.61904901515E+02  0.00000000000E+00 0. -1.
         -2    1    1    2    0  503  0.19368797065E+02  0.10610149955E+02  0.70258597264E+02  0.73647783886E+02  0.00000000000E+00 0.  1.
<mgrwt>
<rscale>  2 0.22084510E+02</rscale>
<asrwt>0</asrwt>
<pdfrwt beam="1">  1       21 0.20280216E-01 0.22084510E+02</pdfrwt>
<pdfrwt beam="2">  1       21 0.57403945E-03 0.22084510E+02</pdfrwt>
<totfact> 0.13591252E+08</totfact>
</mgrwt>
</event>
<event>
 4    1  0.7499963E+004  0.2343241E+02  0.7546771E-02  0.1684595E+00
         21   -1    0    0  501  502  0.00000000000E+00  0.00000000000E+00  0.88403747652E+02  0.88403747652E+02  0.00000000000E+00 0.  1.
         21   -1    0    0  502  503 -0.00000000000E+00 -0.00000000000E+00 -0.77158688412E+01  0.77158688412E+01  0.00000000000E+00 0.  1.
          1    1    1    2  501    0 -0.12094320742E+02  0.20070010383E+02  0.19119545683E+02  0.30242932036E+02  0.00000000000E+00 0. -1.
         -1    1    1    2    0  503  0.12094320742E+02 -0.20070010383E+02  0.61568333128E+02  0.65876684458E+02  0.00000000000E+00 0.  1.
<mgrwt>
<rscale>  2 0.23432412E+02</rscale>
<asrwt>0</asrwt>
<pdfrwt beam="1">  1       21 0.13600576E-01 0.23432412E+02</pdfrwt>
<pdfrwt beam="2">  1       21 0.11870568E-02 0.23432412E+02</pdfrwt>
<totfact> 0.92702010E+07</totfact>
</mgrwt>
</event>
<event>
 4    1  0.7499963E+004  0.2053916E+02  0.7546771E-02  0.1734814E+00
         21   -1    0    0  501  502  0.00000000000E+00  0.00000000000E+00  0.22931468071E+02  0.22931468071E+02  0.00000000000E+00 0. -1.
         21   -1    0    0  502  503 -0.00000000000E+00 -0.00000000000E+00 -0.20371516337E+02  0.20371516337E+02  0.00000000000E+00 0. -1.
          2    1    1    2  501    0  0.18725277268E+02  0.84392477323E+01 -0.54617382012E+01  0.21252940861E+02  0.00000000000E+00 0.  1.
         -2    1    1    2    0  503 -0.18725277268E+02 -0.84392477323E+01  0.80216899350E+01  0.22050043548E+02  0.00000000000E+00 0. -1.
<mgrwt>
<rscale>  2 0.20539156E+02</rscale>
<asrwt>0</asrwt>
<pdfrwt beam="1">  1       21 0.35279182E-02 0.20539156E+02</pdfrwt>
<pdfrwt beam="2">  1       21 0.31340794E-02 0.20539156E+02</pdfrwt>
<totfact> 0.17919806E+08</totfact>
</mgrwt>
</event>
<event>
 4    1  0.7499963E+004  0.2504249E+02  0.7546771E-02  0.1660392E+00
         21   -1    0    0  501  502  0.00000000000E+00  0.00000000000E+00  0.97447735632E+01  0.97447735632E+01  0.00000000000E+00 0. -1.
         21   -1    0    0  502  503 -0.00000000000E+00 -0.00000000000E+00 -0.67759750474E+02  0.67759750474E+02  0.00000000000E+00 0. -1.
          5    1    1    2  501    0  0.21619845428E+02 -0.12637588744E+02 -0.20321000362E+02  0.32250107306E+02  0.00000000000E+00 0. -1.
         -5    1    1    2    0  503 -0.21619845428E+02  0.12637588744E+02 -0.37693976549E+02  0.45254416731E+02  0.00000000000E+00 0.  1.
<mgrwt>
<rscale>  2 0.25042491E+02</rscale>
<asrwt>0</asrwt>
<pdfrwt beam="1">  1       21 0.14991959E-02 0.25042491E+02</pdfrwt>
<pdfrwt beam="2">  1       21 0.10424577E-01 0.25042491E+02</pdfrwt>
<totfact> 0.10348101E+08</totfact>
</mgrwt>
</event>
<event>
 4    1  0.7499963E+004  0.2466445E+02  0.7546771E-02  0.1665869E+00
         21   -1    0    0  501  502  0.00000000000E+00  0.00000000000E+00  0.10079295016E+03  0.10079295016E+03  0.00000000000E+00 0. -1.
         21   -1    0    0  502  503 -0.00000000000E+00 -0.00000000000E+00 -0.60912470270E+01  0.60912470270E+01  0.00000000000E+00 0. -1.
          4    1    1    2  501    0 -0.24619546382E+02  0.14876886714E+01  0.52463703839E+02  0.57972195941E+02  0.00000000000E+00 0. -1.
         -4    1    1    2    0  503  0.24619546382E+02 -0.14876886714E+01  0.42237999295E+02  0.48912001248E+02  0.00000000000E+00 0.  1.
<mgrwt>
<rscale>  2 0.24664454E+02</rscale>
<asrwt>0</asrwt>
<pdfrwt beam="1">  1       21 0.15506607E-01 0.24664454E+02</pdfrwt>
<pdfrwt beam="2">  1       21 0.93711500E-03 0.24664454E+02</pdfrwt>
<totfact> 0.10739363E+08</totfact>
</mgrwt>
</event>
<event>
 4    1  0.7499963E+004  0.2019387E+02  0.7546771E-02  0.1741500E+00
         21   -1    0    0  501  502  0.00000000000E+00  0.00000000000E+00  0.39356583051E+02  0.39356583051E+02  0.00000000000E+00 0. -1.
         21   -1    0    0  502  503 -0.00000000000E+00 -0.00000000000E+00 -0.10638447460E+02  0.10638447460E+02  0.00000000000E+00 0. -1.
          4    1    1    2  501    0 -0.18207251547E+02 -0.87343184316E+01  0.18392497534E+02  0.27314397173E+02  0.00000000000E+00 0. -1.
         -4    1    1    2    0  503  0.18207251547E+02  0.87343184316E+01  0.10325638056E+02  0.22680633338E+02  0.00000000000E+00 0.  1.
<mgrwt>
<rscale>  2 0.20193869E+02</rscale>
<asrwt>0</asrwt>
<pdfrwt beam="1">  1       21 0.60548588E-02 0.20193869E+02</pdfrwt>
<pdfrwt beam="2">  1       21 0.16366842E-02 0.20193869E+02</pdfrwt>
<totfact> 0.20581484E+08</totfact>
</mgrwt>
</event>
<event>
 4    1  0.7499963E+004  0.2688529E+02  0.7546771E-02  0.1635312E+00
         21   -1    0    0  503  502  0.00000000000E+00  0.00000000000E+00  0.17008514558E+03  0.17008514558E+03  0.00000000000E+00 0. -1.
         21   -1    0    0  501  503 -0.00000000000E+00 -0.00000000000E+00 -0.45044903061E+01  0.45044903061E+01  0.00000000000E+00 0. -1.
          2    1    1    2  501    0 -0.24745868027E+01  0.26771161086E+02  0.10354988003E+03  0.10698315895E+03  0.00000000000E+00 0.  1.
         -2    1    1    2    0  502  0.24745868027E+01 -0.26771161086E+02  0.62030775249E+02  0.67606476936E+02  0.00000000000E+00 0. -1.
<mgrwt>
<rscale>  2 0.26885287E+02</rscale>
<asrwt>0</asrwt>
<pdfrwt beam="1">  1       21 0.26166940E-01 0.26885287E+02</pdfrwt>
<pdfrwt beam="2">  1       21 0.69299864E-03 0.26885287E+02</pdfrwt>
<totfact> 0.68845360E+07</totfact>
</mgrwt>
</event>
<event>
 4    1  0.7499963E+004  0.2078760E+02  0.7546771E-02  0.1730105E+00
         21   -1    0    0  503  502  0.00000000000E+00  0.00000000000E+00  0.43959213955E+00  0.43959213955E+00  0.00000000000E+00 0.  1.
         21   -1    0    0  501  503 -0.00000000000E+00 -0.00000000000E+00 -0.10270513301E+04  0.10270513301E+04  0.00000000000E+00 0.  1.
          4    1    1    2  501    0 -0.10466772617E+02 -0.17960258933E+02 -0.61968920436E+03  0.62003776839E+03  0.00000000000E+00 0.  1.
         -4    1    1    2    0  502  0.10466772617E+02  0.17960258933E+02 -0.40692253355E+03  0.40745315380E+03  0.00000000000E+00 0. -1.
<mgrwt>
<rscale>  2 0.20787598E+02</rscale>
<asrwt>0</asrwt>
<pdfrwt beam="1">  1       21 0.67629948E-04 0.20787598E+02</pdfrwt>
<pdfrwt beam="2">  1       21 0.15800699E+00 0.20787598E+02</pdfrwt>
<totfact> 0.47636403E+07</totfact>
</mgrwt>
</event>
<event>
 4    1  0.7499963E+004  0.2120030E+02  0.7546771E-02  0.1722461E+00
         21   -1    0    0  503  502  0.00000000000E+00  0.00000000000E+00  0.74741218332E+01  0.74741218332E+01  0.00000000000E+00 0. -1.
         21   -1    0    0  501  503 -0.00000000000E+00 -0.00000000000E+00 -0.61370730440E+02  0.61370730440E+02  0.00000000000E+00 0. -1.
          4    1    1    2  501    0 -0.16856204481E+02  0.12857729998E+02 -0.31833749910E+02  0.38247097714E+02  0.00000000000E+00 0. -1.
         -4    1    1    2    0  502  0.16856204481E+02 -0.12857729998E+02 -0.22062858697E+02  0.30597754560E+02  0.00000000000E+00 0.  1.
<mgrwt>
<rscale>  2 0.21200303E+02</rscale>
<asrwt>0</asrwt>
<pdfrwt beam="1">  1       21 0.11498649E-02 0.21200303E+02</pdfrwt>
<pdfrwt beam="2">  1       21 0.94416505E-02 0.21200303E+02</pdfrwt>
<totfact> 0.17346234E+08</totfact>
</mgrwt>
</event>
<event>
 4    1  0.7499963E+004  0.2112821E+02  0.7546771E-02  0.1723780E+00
         21   -1    0    0  501  502  0.00000000000E+00  0.00000000000E+00  0.37102435934E+02  0.37102435934E+02  0.00000000000E+00 0.  1.
         21   -1    0    0  502  503 -0.00000000000E+00 -0.00000000000E+00 -0.13892589874E+02  0.13892589874E+02  0.00000000000E+00 0.  1.
          4    1    1    2  501    0  0.18053599843E+02 -0.10975829894E+02  0.22728238256E+01  0.21250106759E+02  0.00000000000E+00 0.  1.
         -4    1    1    2    0  503 -0.18053599843E+02  0.10975829894E+02  0.20937022234E+02  0.29744919048E+02  0.00000000000E+00 0. -1.
<mgrwt>
<rscale>  2 0.21128211E+02</rscale>
<asrwt>0</asrwt>
<pdfrwt beam="1">  1       21 0.57080670E-02 0.21128211E+02</pdfrwt>
<pdfrwt beam="2">  1       21 0.21373215E-02 0.21128211E+02</pdfrwt>
<totfact> 0.15272507E+08</totfact>
</mgrwt>
</event>
<event>
 4    1  0.7499963E+004  0.2502726E+02  0.7546771E-02  0.1660611E+00
         21   -1    0    0  501  502  0.00000000000E+00  0.00000000000E+00  0.11592615695E+01  0.11592615695E+01  0.00000000000E+00 0.  1.
         21   -1    0    0  502  503 -0.00000000000E+00 -0.00000000000E+00 -0.58483241549E+03  0.58483241549E+03  0.00000000000E+00 0.  1.
          3    1    1    2  501    0 -0.21034239964E+02 -0.13561871914E+02 -0.21099729219E+03  0.21247640089E+03  0.00000000000E+00 0. -1.
         -3    1    1    2    0  503  0.21034239964E+02  0.13561871914E+02 -0.37267586173E+03  0.37351527617E+03  0.00000000000E+00 0.  1.
<mgrwt>
<rscale>  2 0.25027258E+02</rscale>
<asrwt>0</asrwt>
<pdfrwt beam="1">  1       21 0.17834809E-03 0.25027258E+02</pdfrwt>
<pdfrwt beam="2">  1       21 0.89974139E-01 0.25027258E+02</pdfrwt>
<totfact> 0.44421012E+07</totfact>
</mgrwt>
</event>
<event>
 4    1  0.7499963E+004  0.2429618E+02  0.7546771E-02  0.1671322E+00
         21   -1    0    0  503  502  0.00000000000E+00  0.00000000000E+00  0.68591102219E+03  0.68591102219E+03  0.00000000000E+00 0. -1.
         21   -1    0    0  501  503 -0.00000000000E+00 -0.00000000000E+00 -0.86407994419E+00  0.86407994419E+00  0.00000000000E+00 0. -1.
          3    1    1    2  501    0 -0.13864429330E+02  0.19951997172E+02  0.36427159095E+03  0.36508094522E+03  0.00000000000E+00 0. -1.
         -3    1    1    2    0  502  0.13864429330E+02 -0.19951997172E+02  0.32077535130E+03  0.32169415692E+03  0.00000000000E+00 0.  1.
<mgrwt>
<rscale>  2 0.24296185E+02</rscale>
<asrwt>0</asrwt>
<pdfrwt beam="1">  1       21 0.10552434E+00 0.24296185E+02</pdfrwt>
<pdfrwt beam="2">  1       21 0.13293592E-03 0.24296185E+02</pdfrwt>
<totfact> 0.47577365E+07</totfact>
</mgrwt>
</event>
<event>
 4    1  0.7499963E+004  0.7537701E+02  0.7546771E-02  0.1342708E+00
         21   -1    0    0  501  502  0.00000000000E+00  0.00000000000E+00  0.62881197989E+02  0.62881197989E+02  0.00000000000E+00 0. -1.
         21   -1    0    0  502  503 -0.00000000000E+00 -0.00000000000E+00 -0.90389319194E+02  0.90389319194E+02  0.00000000000E+00 0. -1.
          3    1    1    2  501    0 -0.74947060352E+02 -0.80393481090E+01 -0.15225608918E+02  0.76899363719E+02  0.00000000000E+00 0.  1.
         -3    1    1    2    0  503  0.74947060352E+02  0.80393481090E+01 -0.12282512286E+02  0.76371153464E+02  0.00000000000E+00 0. -1.
<mgrwt>
<rscale>  2 0.75377006E+02</rscale>
<asrwt>0</asrwt>
<pdfrwt beam="1">  1       21 0.96740305E-02 0.75377006E+02</pdfrwt>
<pdfrwt beam="2">  1       21 0.13906049E-01 0.75377006E+02</pdfrwt>
<totfact> 0.37159424E+06</totfact>
</mgrwt>
</event>
<event>
 4    1  0.7499963E+004  0.2126013E+02  0.7546771E-02  0.1721371E+00
         21   -1    0    0  503  502  0.00000000000E+00  0.00000000000E+00  0.31934582609E+02  0.31934582609E+02  0.00000000000E+00 0. -1.
         21   -1    0    0  501  503 -0.00000000000E+00 -0.00000000000E+00 -0.14180798699E+02  0.14180798699E+02  0.00000000000E+00 0. -1.
          2    1    1    2  501    0  0.14347834535E+02  0.15688620035E+02  0.98844634522E+01  0.23445591743E+02  0.00000000000E+00 0.  1.
         -2    1    1    2    0  502 -0.14347834535E+02 -0.15688620035E+02  0.78693204585E+01  0.22669789565E+02  0.00000000000E+00 0. -1.
<mgrwt>
<rscale>  2 0.21260131E+02</rscale>
<asrwt>0</asrwt>
<pdfrwt beam="1">  1       21 0.49130127E-02 0.21260131E+02</pdfrwt>
<pdfrwt beam="2">  1       21 0.21816613E-02 0.21260131E+02</pdfrwt>
<totfact> 0.18824495E+08</totfact>
</mgrwt>
</event>
<event>
 4    1  0.7499963E+004  0.4035145E+02  0.7546771E-02  0.1505641E+00
         21   -1    0    0  503  502  0.00000000000E+00  0.00000000000E+00  0.14731471074E+02  0.14731471074E+02  0.00000000000E+00 0.  1.
         21   -1    0    0  501  503 -0.00000000000E+00 -0.00000000000E+00 -0.16992655148E+03  0.16992655148E+03  0.00000000000E+00 0.  1.
          1    1    1    2  501    0  0.18184850145E+02 -0.36021526570E+02 -0.13218535498E+03  0.13820711712E+03  0.00000000000E+00 0.  1.
         -1    1    1    2    0  502 -0.18184850145E+02  0.36021526570E+02 -0.23009725420E+02  0.46450905429E+02  0.00000000000E+00 0. -1.
<mgrwt>
<rscale>  2 0.40351445E+02</rscale>
<asrwt>0</asrwt>
<pdfrwt beam="1">  1       21 0.22663802E-02 0.40351445E+02</pdfrwt>
<pdfrwt beam="2">  1       21 0.26142546E-01 0.40351445E+02</pdfrwt>
<totfact> 0.12115598E+07</totfact>
</mgrwt>
</event>
<event>
 4    1  0.7499963E+004  0.2303845E+02  0.7546771E-02  0.1690888E+00
         21   -1    0    0  503  502  0.00000000000E+00  0.00000000000E+00  0.72556318333E+01  0.72556318333E+01  0.00000000000E+00 0. -1.
         21   -1    0    0  501  503 -0.00000000000E+00 -0.00000000000E+00 -0.73509879569E+02  0.73509879569E+02  0.00000000000E+00 0. -1.
          1    1    1    2  501    0 -0.22708324472E+02  0.38861683881E+01 -0.30312878545E+02  0.38074150164E+02  0.00000000000E+00 0. -1.
         -1    1    1    2    0  502  0.22708324472E+02 -0.38861683881E+01 -0.35941369190E+02  0.42691361238E+02  0.00000000000E+00 0.  1.
<mgrwt>
<rscale>  2 0.23038453E+02</rscale>
<asrwt>0</asrwt>
<pdfrwt beam="1">  1       21 0.11162509E-02 0.23038453E+02</pdfrwt>
<pdfrwt beam="2">  1       21 0.11309213E-01 0.23038453E+02</pdfrwt>
<totfact> 0.13798002E+08</totfact>
</mgrwt>
</event>
<event>
 4    1  0.7499963E+004  0.3333859E+02  0.7546771E-02  0.1563869E+00
         21   -1    0    0  501  502  0.00000000000E+00  0.00000000000E+00  0.18679049682E+03  0.18679049682E+03  0.00000000000E+00 0. -1.
         21   -1    0    0  502  503 -0.00000000000E+00 -0.00000000000E+00 -0.59523011721E+01  0.59523011721E+01  0.00000000000E+00 0. -1.
          1    1    1    2  501    0 -0.30536911343E+02  0.13377550487E+02  0.92180656323E+02  0.98024156266E+02  0.00000000000E+00 0.  1.
         -1    1    1    2    0  503  0.30536911343E+02 -0.13377550487E+02  0.88657539326E+02  0.94718641728E+02  0.00000000000E+00 0. -1.
<mgrwt>
<rscale>  2 0.33338593E+02</rscale>
<asrwt>0</asrwt>
<pdfrwt beam="1">  1       21 0.28736995E-01 0.33338593E+02</pdfrwt>
<pdfrwt beam="2">  1       21 0.91573878E-03 0.33338593E+02</pdfrwt>
<totfact> 0.39947181E+07</totfact>
</mgrwt>
</event>
<event>
 4    1  0.7499963E+004  0.2663380E+02  0.7546771E-02  0.1638586E+00
         21   -1    0    0  503  502  0.00000000000E+00  0.00000000000E+00  0.29156813058E+02  0.29156813058E+02  0.00000000000E+00 0.  1.
         21   -1    0    0  501  503 -0.00000000000E+00 -0.00000000000E+00 -0.24640513869E+02  0.24640513869E+02  0.00000000000E+00 0.  1.
          1    1    1    2  501    0 -0.23930586874E+02  0.11691294511E+02 -0.76574595908E+00  0.26644806668E+02  0.00000000000E+00 0. -1.
         -1    1    1    2    0  502  0.23930586874E+02 -0.11691294511E+02  0.52820451488E+01  0.27152520259E+02  0.00000000000E+00 0.  1.
<mgrwt>
<rscale>  2 0.26633801E+02</rscale>
<asrwt>0</asrwt>
<pdfrwt beam="1">  1       21 0.44856636E-02 0.26633801E+02</pdfrwt>
<pdfrwt beam="2">  1       21 0.37908483E-02 0.26633801E+02</pdfrwt>
<totfact> 0.98289590E+07</totfact>
</mgrwt>
</event>
<event>
 4    1  0.7499963E+004  0.3079889E+02  0.7546771E-02  0.1589422E+00
         21   -1    0    0  503  502  0.00000000000E+00  0.00000000000E+00  0.55201000388E+01  0.55201000388E+01  0.00000000000E+00 0.  1.
         21   -1    0    0  501  503 -0.00000000000E+00 -0.00000000000E+00 -0.17298839306E+03  0.17298839306E+03  0.00000000000E+00 0.  1.
          1    1    1    2  501    0 -0.20765294027E+02  0.22745866840E+02 -0.91007546686E+02  0.96077809343E+02  0.00000000000E+00 0.  1.
         -1    1    1    2    0  502  0.20765294027E+02 -0.22745866840E+02 -0.76460746335E+02  0.82430683756E+02  0.00000000000E+00 0. -1.
<mgrwt>
<rscale>  2 0.30798894E+02</rscale>
<asrwt>0</asrwt>
<pdfrwt beam="1">  1       21 0.84924624E-03 0.30798894E+02</pdfrwt>
<pdfrwt beam="2">  1       21 0.26613597E-01 0.30798894E+02</pdfrwt>
<totfact> 0.50706787E+07</totfact>
</mgrwt>
</event>
<event>
 4    1  0.7499963E+004  0.2017625E+02  0.7546771E-02  0.1741846E+00
         21   -1    0    0  503  502  0.00000000000E+00  0.00000000000E+00  0.34317046728E+02  0.34317046728E+02  0.00000000000E+00 0. -1.
         21   -1    0    0  501  503 -0.00000000000E+00 -0.00000000000E+00 -0.12838891446E+02  0.12838891446E+02  0.00000000000E+00 0. -1.
          3    1    1    2  501    0  0.45959438820E+01  0.19645826318E+02  0.42364998532E+01  0.20616234449E+02  0.00000000000E+00 0. -1.
         -3    1    1    2    0  502 -0.45959438820E+01 -0.19645826318E+02  0.17241655428E+02  0.26539703724E+02  0.00000000000E+00 0.  1.
<mgrwt>
<rscale>  2 0.20176253E+02</rscale>
<asrwt>0</asrwt>
<pdfrwt beam="1">  1       21 0.52795456E-02 0.20176253E+02</pdfrwt>
<pdfrwt beam="2">  1       21 0.19752141E-02 0.20176253E+02</pdfrwt>
<totfact> 0.19227281E+08</totfact>
</mgrwt>
</event>
<event>
 4    1  0.7499963E+004  0.2056669E+02  0.7546771E-02  0.1734288E+00
         21   -1    0    0  503  502  0.00000000000E+00  0.00000000000E+00  0.17545629477E+01  0.17545629477E+01  0.00000000000E+00 0.  1.
         21   -1    0    0  501  503 -0.00000000000E+00 -0.00000000000E+00 -0.24800326480E+03  0.24800326480E+03  0.00000000000E+00 0.  1.
          4    1    1    2  501    0 -0.10617713506E+02 -0.17614002551E+02 -0.14399018344E+03  0.14545157907E+03  0.00000000000E+00 0.  1.
         -4    1    1    2    0  502  0.10617713506E+02  0.17614002551E+02 -0.10225851841E+03  0.10430624868E+03  0.00000000000E+00 0. -1.
<mgrwt>
<rscale>  2 0.20566695E+02</rscale>
<asrwt>0</asrwt>
<pdfrwt beam="1">  1       21 0.26993276E-03 0.20566695E+02</pdfrwt>
<pdfrwt beam="2">  1       21 0.38154348E-01 0.20566695E+02</pdfrwt>
<totfact> 0.12876041E+08</totfact>
</mgrwt>
</event>
<event>
 4    1  0.7499963E+004  0.2268774E+02  0.7546771E-02  0.1696622E+00
         21   -1    0    0  503  502  0.00000000000E+00  0.00000000000E+00  0.88231247974E+02  0.88231247974E+02  0.00000000000E+00 0.  1.
         21   -1    0    0  501  503 -0.00000000000E+00 -0.00000000000E+00 -0.84330275706E+01  0.84330275706E+01  0.00000000000E+00 0.  1.
          5    1    1    2  501    0  0.16003275326E+02  0.16081934461E+02  0.66731351121E+02  0.70482669215E+02  0.00000000000E+00 0. -1.
         -5    1    1    2    0  502 -0.16003275326E+02 -0.16081934461E+02  0.13066869282E+02  0.26181606330E+02  0.00000000000E+00 0.  1.
<mgrwt>
<rscale>  2 0.22687738E+02</rscale>
<asrwt>0</asrwt>
<pdfrwt beam="1">  1       21 0.13574038E-01 0.22687738E+02</pdfrwt>
<pdfrwt beam="2">  1       21 0.12973889E-02 0.22687738E+02</pdfrwt>
<totfact> 0.80594953E+07</totfact>
</mgrwt>
</event>
<event>
 4    1  0.7499963E+004  0.2278291E+02  0.7546771E-02  0.1695053E+00
         21   -1    0    0  503  502  0.00000000000E+00  0.00000000000E+00  0.42487882975E+02  0.42487882975E+02  0.00000000000E+00 0. -1.
         21   -1    0    0  501  503 -0.00000000000E+00 -0.00000000000E+00 -0.12224116512E+02  0.12224116512E+02  0.00000000000E+00 0. -1.
          3    1    1    2  501    0 -0.22492817456E+02  0.36241382467E+01  0.14457524014E+02  0.26982980112E+02  0.00000000000E+00 0. -1.
         -3    1    1    2    0  502  0.22492817456E+02 -0.36241382467E+01  0.15806242450E+02  0.27729019375E+02  0.00000000000E+00 0.  1.
<mgrwt>
<rscale>  2 0.22782915E+02</rscale>
<asrwt>0</asrwt>
<pdfrwt beam="1">  1       21 0.65365973E-02 0.22782915E+02</pdfrwt>
<pdfrwt beam="2">  1       21 0.18806333E-02 0.22782915E+02</pdfrwt>
<totfact> 0.15297412E+08</totfact>
</mgrwt>
</event>
<event>
 4    1  0.7499963E+004  0.2380945E+02  0.7546771E-02  0.1678715E+00
         21   -1    0    0  503  502  0.00000000000E+00  0.00000000000E+00  0.12998281211E+03  0.12998281211E+03  0.00000000000E+00 0. -1.
         21   -1    0    0  501  503 -0.00000000000E+00 -0.00000000000E+00 -0.46619087246E+01  0.46619087246E+01  0.00000000000E+00 0. -1.
          4    1    1    2  501    0  0.74121788203E+01  0.22626300047E+02  0.45564175523E+02  0.51409959539E+02  0.00000000000E+00 0. -1.
         -4    1    1    2    0  502 -0.74121788203E+01 -0.22626300047E+02  0.79756727864E+02  0.83234761297E+02  0.00000000000E+00 0.  1.
<mgrwt>
<rscale>  2 0.23809449E+02</rscale>
<asrwt>0</asrwt>
<pdfrwt beam="1">  1       21 0.19997353E-01 0.23809449E+02</pdfrwt>
<pdfrwt beam="2">  1       21 0.71721683E-03 0.23809449E+02</pdfrwt>
<totfact> 0.10223726E+08</totfact>
</mgrwt>
</event>
<event>
 4    1  0.7499963E+004  0.2118521E+02  0.7546771E-02  0.1722737E+00
         21   -1    0    0  501  502  0.00000000000E+00  0.00000000000E+00  0.11207419477E+03  0.11207419477E+03  0.00000000000E+00 0. -1.
         21   -1    0    0  502  503 -0.00000000000E+00 -0.00000000000E+00 -0.40301459513E+01  0.40301459513E+01  0.00000000000E+00 0. -1.
          3    1    1    2  501    0 -0.19835283209E+02  0.74414274772E+01  0.58643116091E+02  0.62352452780E+02  0.00000000000E+00 0.  1.
         -3    1    1    2    0  503  0.19835283209E+02 -0.74414274772E+01  0.49400932732E+02  0.53751887945E+02  0.00000000000E+00 0. -1.
<mgrwt>
<rscale>  2 0.21185214E+02</rscale>
<asrwt>0</asrwt>
<pdfrwt beam="1">  1       21 0.17242181E-01 0.21185214E+02</pdfrwt>
<pdfrwt beam="2">  1       21 0.62002254E-03 0.21185214E+02</pdfrwt>
<totfact> 0.15862278E+08</totfact>
</mgrwt>
</event>
<event>
 4    1  0.7499963E+004  0.5396890E+02  0.7546771E-02  0.1425039E+00
         21   -1    0    0  503  502  0.00000000000E+00  0.00000000000E+00  0.24726958246E+02  0.24726958246E+02  0.00000000000E+00 0.  1.
         21   -1    0    0  501  503 -0.00000000000E+00 -0.00000000000E+00 -0.17162311508E+03  0.17162311508E+03  0.00000000000E+00 0.  1.
          1    1    1    2  501    0 -0.15585009046E+02  0.51669619048E+02 -0.12843117423E+03  0.13930975756E+03  0.00000000000E+00 0. -1.
         -1    1    1    2    0  502  0.15585009046E+02 -0.51669619048E+02 -0.18464982607E+02  0.57040315762E+02  0.00000000000E+00 0.  1.
<mgrwt>
<rscale>  2 0.53968899E+02</rscale>
<asrwt>0</asrwt>
<pdfrwt beam="1">  1       21 0.38041475E-02 0.53968899E+02</pdfrwt>
<pdfrwt beam="2">  1       21 0.26403556E-01 0.53968899E+02</pdfrwt>
<totfact> 0.53854522E+06</totfact>
</mgrwt>
</event>
<event>
 4    1  0.7499963E+004  0.4193263E+02  0.7546771E-02  0.1494453E+00
         21   -1    0    0  503  502  0.00000000000E+00  0.00000000000E+00  0.26470760511E+04  0.26470760511E+04  0.00000000000E+00 0. -1.
         21   -1    0    0  501  503 -0.00000000000E+00 -0.00000000000E+00 -0.72780797674E+00  0.72780797674E+00  0.00000000000E+00 0. -1.
          3    1    1    2  501    0 -0.36915385936E+02 -0.19889693429E+02  0.17143749013E+04  0.17148876488E+04  0.00000000000E+00 0.  1.
         -3    1    1    2    0  502  0.36915385936E+02  0.19889693429E+02  0.93197334177E+03  0.93291621027E+03  0.00000000000E+00 0. -1.
<mgrwt>
<rscale>  2 0.41932632E+02</rscale>
<asrwt>0</asrwt>
<pdfrwt beam="1">  1       21 0.40723476E+00 0.41932632E+02</pdfrwt>
<pdfrwt beam="2">  1       21 0.11197258E-03 0.41932632E+02</pdfrwt>
<totfact> 0.10847164E+06</totfact>
</mgrwt>
</event>
<event>
 4    1  0.7499963E+004  0.2291871E+02  0.7546771E-02  0.1692831E+00
         21   -1    0    0  503  502  0.00000000000E+00  0.00000000000E+00  0.37557836135E+01  0.37557836135E+01  0.00000000000E+00 0.  1.
         21   -1    0    0  501  503 -0.00000000000E+00 -0.00000000000E+00 -0.21419329628E+03  0.21419329628E+03  0.00000000000E+00 0.  1.
          2    1    1    2  501    0 -0.84257337567E+01 -0.21313711856E+02 -0.16941752662E+03  0.17096071370E+03  0.00000000000E+00 0.  1.
         -2    1    1    2    0  502  0.84257337567E+01  0.21313711856E+02 -0.41019986051E+02  0.46988366199E+02  0.00000000000E+00 0. -1.
<mgrwt>
<rscale>  2 0.22918711E+02</rscale>
<asrwt>0</asrwt>
<pdfrwt beam="1">  1       21 0.57781275E-03 0.22918711E+02</pdfrwt>
<pdfrwt beam="2">  1       21 0.32952821E-01 0.22918711E+02</pdfrwt>
<totfact> 0.57051856E+07</totfact>
</mgrwt>
</event>
<event>
 4    1  0.7499963E+004  0.2524889E+02  0.7546771E-02  0.1657453E+00
         21   -1    0    0  501  502  0.00000000000E+00  0.00000000000E+00  0.25007369638E+03  0.25007369638E+03  0.00000000000E+00 0.  1.
         21   -1    0    0  502  503 -0.00000000000E+00 -0.00000000000E+00 -0.40342934128E+01  0.40342934128E+01  0.00000000000E+00 0.  1.
          1    1    1    2  501    0  0.35482175502E+01  0.24998330729E+02  0.20010483717E+03  0.20169147787E+03  0.00000000000E+00 0.  1.
         -1    1    1    2    0  503 -0.35482175502E+01 -0.24998330729E+02  0.45934565794E+02  0.52416511918E+02  0.00000000000E+00 0. -1.
<mgrwt>
<rscale>  2 0.25248889E+02</rscale>
<asrwt>0</asrwt>
<pdfrwt beam="1">  1       21 0.38472864E-01 0.25248889E+02</pdfrwt>
<pdfrwt beam="2">  1       21 0.62066072E-03 0.25248889E+02</pdfrwt>
<totfact> 0.39346666E+07</totfact>
</mgrwt>
</event>
<event>
 4    1  0.7499963E+004  0.2029158E+02  0.7546771E-02  0.1739591E+00
         21   -1    0    0  501  502  0.00000000000E+00  0.00000000000E+00  0.14014973826E+02  0.14014973826E+02  0.00000000000E+00 0.  1.
         21   -1    0    0  502  503 -0.00000000000E+00 -0.00000000000E+00 -0.30185347352E+02  0.30185347352E+02  0.00000000000E+00 0.  1.
          1    1    1    2  501    0 -0.81832906705E+00  0.20275068940E+02 -0.11696929269E+02  0.23421490929E+02  0.00000000000E+00 0.  1.
         -1    1    1    2    0  503  0.81832906705E+00 -0.20275068940E+02 -0.44734442572E+01  0.20778830249E+02  0.00000000000E+00 0. -1.
<mgrwt>
<rscale>  2 0.20291577E+02</rscale>
<asrwt>0</asrwt>
<pdfrwt beam="1">  1       21 0.21561499E-02 0.20291577E+02</pdfrwt>
<pdfrwt beam="2">  1       21 0.46438995E-02 0.20291577E+02</pdfrwt>
<totfact> 0.20642056E+08</totfact>
</mgrwt>
</event>
<event>
 4    1  0.7499963E+004  0.3052328E+02  0.7546771E-02  0.1592376E+00
         21   -1    0    0  501  502  0.00000000000E+00  0.00000000000E+00  0.41558873802E+01  0.41558873802E+01  0.00000000000E+00 0.  1.
         21   -1    0    0  502  503 -0.00000000000E+00 -0.00000000000E+00 -0.22657865517E+03  0.22657865517E+03  0.00000000000E+00 0.  1.
          4    1    1    2  501    0 -0.33397860419E+01  0.30340011138E+02 -0.99343363093E+02  0.10392677344E+03  0.00000000000E+00 0. -1.
         -4    1    1    2    0  503  0.33397860419E+01 -0.30340011138E+02 -0.12307940470E+03  0.12680776911E+03  0.00000000000E+00 0.  1.
<mgrwt>
<rscale>  2 0.30523277E+02</rscale>
<asrwt>0</asrwt>
<pdfrwt beam="1">  1       21 0.63936725E-03 0.30523277E+02</pdfrwt>
<pdfrwt beam="2">  1       21 0.34858257E-01 0.30523277E+02</pdfrwt>
<totfact> 0.47153090E+07</totfact>
</mgrwt>
</event>
<event>
 4    1  0.7499963E+004  0.2123536E+02  0.7546771E-02  0.1721822E+00
         21   -1    0    0  503  502  0.00000000000E+00  0.00000000000E+00  0.11436546385E+02  0.11436546385E+02  0.00000000000E+00 0.  1.
         21   -1    0    0  501  503 -0.00000000000E+00 -0.00000000000E+00 -0.53118557374E+02  0.53118557374E+02  0.00000000000E+00 0.  1.
          1    1    1    2  501    0 -0.13334931236E+02 -0.16526349185E+02 -0.37226503398E+02  0.42857358338E+02  0.00000000000E+00 0.  1.
         -1    1    1    2    0  502  0.13334931236E+02  0.16526349185E+02 -0.44555075915E+01  0.21697745421E+02  0.00000000000E+00 0. -1.
<mgrwt>
<rscale>  2 0.21235362E+02</rscale>
<asrwt>0</asrwt>
<pdfrwt beam="1">  1       21 0.17594686E-02 0.21235362E+02</pdfrwt>
<pdfrwt beam="2">  1       21 0.81720860E-02 0.21235362E+02</pdfrwt>
<totfact> 0.11546407E+08</totfact>
</mgrwt>
</event>
<event>
 4    1  0.7499963E+004  0.2065645E+02  0.7546771E-02  0.1732580E+00
         21   -1    0    0  503  502  0.00000000000E+00  0.00000000000E+00  0.52652603535E+01  0.52652603535E+01  0.00000000000E+00 0.  1.
         21   -1    0    0  501  503 -0.00000000000E+00 -0.00000000000E+00 -0.86747524460E+02  0.86747524460E+02  0.00000000000E+00 0.  1.
          5    1    1    2  501    0  0.88799513818E+01 -0.18650346583E+02 -0.52543507023E+02  0.56458029496E+02  0.00000000000E+00 0. -1.
         -5    1    1    2    0  502 -0.88799513818E+01  0.18650346583E+02 -0.28938757083E+02  0.35554755318E+02  0.00000000000E+00 0.  1.
<mgrwt>
<rscale>  2 0.20656451E+02</rscale>
<asrwt>0</asrwt>
<pdfrwt beam="1">  1       21 0.81004009E-03 0.20656451E+02</pdfrwt>
<pdfrwt beam="2">  1       21 0.13345772E-01 0.20656451E+02</pdfrwt>
<totfact> 0.16355980E+08</totfact>
</mgrwt>
</event>
<event>
 4    1  0.7499963E+004  0.3499545E+02  0.7546771E-02  0.1548641E+00
         21   -1    0    0  503  502  0.00000000000E+00  0.00000000000E+00  0.17143176484E+01  0.17143176484E+01  0.00000000000E+00 0.  1.
         21   -1    0    0  501  503 -0.00000000000E+00 -0.00000000000E+00 -0.71533948003E+03  0.71533948003E+03  0.00000000000E+00 0.  1.
          2    1    1    2  501    0 -0.32014376802E+02 -0.14133701053E+02 -0.34371232310E+03  0.34548928041E+03  0.00000000000E+00 0.  1.
         -2    1    1    2    0  502  0.32014376802E+02  0.14133701053E+02 -0.36991283928E+03  0.37156451727E+03  0.00000000000E+00 0. -1.
<mgrwt>
<rscale>  2 0.34995454E+02</rscale>
<asrwt>0</asrwt>
<pdfrwt beam="1">  1       21 0.26374138E-03 0.34995454E+02</pdfrwt>
<pdfrwt beam="2">  1       21 0.11005214E+00 0.34995454E+02</pdfrwt>
<totfact> 0.17026309E+07</totfact>
</mgrwt>
</event>
<event>
 4    1  0.7499963E+004  0.2746848E+02  0.7546771E-02  0.1627884E+00
         21   -1    0    0  503  502  0.00000000000E+00  0.00000000000E+00  0.12703724799E+02  0.12703724799E+02  0.00000000000E+00 0.  1.
         21   -1    0    0  501  503 -0.00000000000E+00 -0.00000000000E+00 -0.59415784453E+02  0.59415784453E+02  0.00000000000E+00 0.  1.
          2    1    1    2  501    0 -0.21229128960E+02  0.17431043549E+02 -0.24056206414E+02  0.36513261463E+02  0.00000000000E+00 0.  1.
         -2    1    1    2    0  502  0.21229128960E+02 -0.17431043549E+02 -0.22655853240E+02  0.35606247790E+02  0.00000000000E+00 0. -1.
<mgrwt>
<rscale>  2 0.27468476E+02</rscale>
<asrwt>0</asrwt>
<pdfrwt beam="1">  1       21 0.19544192E-02 0.27468476E+02</pdfrwt>
<pdfrwt beam="2">  1       21 0.91408899E-02 0.27468476E+02</pdfrwt>
<totfact> 0.87783902E+07</totfact>
</mgrwt>
</event>
<event>
 4    1  0.7499963E+004  0.2457126E+02  0.7546771E-02  0.1667238E+00
         21   -1    0    0  501  502  0.00000000000E+00  0.00000000000E+00  0.10116995098E+01  0.10116995098E+01  0.00000000000E+00 0.  1.
         21   -1    0    0  502  503 -0.00000000000E+00 -0.00000000000E+00 -0.73523480025E+03  0.73523480025E+03  0.00000000000E+00 0.  1.
          2    1    1    2  501    0 -0.10564232337E+02  0.22184309862E+02 -0.20735519695E+03  0.20880594894E+03  0.00000000000E+00 0. -1.
         -2    1    1    2    0  503  0.10564232337E+02 -0.22184309862E+02 -0.52686790378E+03  0.52744055082E+03  0.00000000000E+00 0.  1.
<mgrwt>
<rscale>  2 0.24571256E+02</rscale>
<asrwt>0</asrwt>
<pdfrwt beam="1">  1       21 0.15564617E-03 0.24571256E+02</pdfrwt>
<pdfrwt beam="2">  1       21 0.11311298E+00 0.24571256E+02</pdfrwt>
<totfact> 0.32561046E+07</totfact>
</mgrwt>
</event>
<event>
 4    1  0.7499963E+004  0.3095015E+02  0.7546771E-02  0.1587817E+00
         21   -1    0    0  501  502  0.00000000000E+00  0.00000000000E+00  0.10353103228E+02  0.10353103228E+02  0.00000000000E+00 0.  1.
         21   -1    0    0  502  503 -0.00000000000E+00 -0.00000000000E+00 -0.11996410699E+03  0.11996410699E+03  0.00000000000E+00 0.  1.
          1    1    1    2  501    0  0.30348323200E+02  0.60737970104E+01 -0.23642585629E+02  0.38947189712E+02  0.00000000000E+00 0.  1.
         -1    1    1    2    0  503 -0.30348323200E+02 -0.60737970104E+01 -0.85968418129E+02  0.91370020504E+02  0.00000000000E+00 0. -1.
<mgrwt>
<rscale>  2 0.30950149E+02</rscale>
<asrwt>0</asrwt>
<pdfrwt beam="1">  1       21 0.15927851E-02 0.30950149E+02</pdfrwt>
<pdfrwt beam="2">  1       21 0.18456017E-01 0.30950149E+02</pdfrwt>
<totfact> 0.37398090E+07</totfact>
</mgrwt>
</event>
<event>
 4    1  0.7499963E+004  0.2066698E+02  0.7546771E-02  0.1732381E+00
         21   -1    0    0  501  502  0.00000000000E+00  0.00000000000E+00  0.45214153217E+02  0.45214153217E+02  0.00000000000E+00 0.  1.
         21   -1    0    0  502  503 -0.00000000000E+00 -0.00000000000E+00 -0.99816932186E+01  0.99816932186E+01  0.00000000000E+00 0.  1.
          2    1    1    2  501    0  0.15953285754E+02  0.13138365029E+02  0.24005535162E+02  0.31676326814E+02  0.00000000000E+00 0.  1.
         -2    1    1    2    0  503 -0.15953285754E+02 -0.13138365029E+02  0.11226924836E+02  0.23519519622E+02  0.00000000000E+00 0. -1.
<mgrwt>
<rscale>  2 0.20666978E+02</rscale>
<asrwt>0</asrwt>
<pdfrwt beam="1">  1       21 0.69560234E-02 0.20666978E+02</pdfrwt>
<pdfrwt beam="2">  1       21 0.15356451E-02 0.20666978E+02</pdfrwt>
<totfact> 0.18278864E+08</totfact>
</mgrwt>
</event>
<event>
 4    1  0.7499963E+004  0.3042701E+02  0.7546771E-02  0.1593416E+00
         21   -1    0    0  503  502  0.00000000000E+00  0.00000000000E+00  0.19573476253E+02  0.19573476253E+02  0.00000000000E+00 0. -1.
         21   -1    0    0  501  503 -0.00000000000E+00 -0.00000000000E+00 -0.57156714057E+02  0.57156714057E+02  0.00000000000E+00 0. -1.
          2    1    1    2  501    0  0.19355733403E+02  0.23476762493E+02 -0.28587418199E+01  0.30561007796E+02  0.00000000000E+00 0.  1.
         -2    1    1    2    0  502 -0.19355733403E+02 -0.23476762493E+02 -0.34724495984E+02  0.46169182514E+02  0.00000000000E+00 0. -1.
<mgrwt>
<rscale>  2 0.30427008E+02</rscale>
<asrwt>0</asrwt>
<pdfrwt beam="1">  1       21 0.30113041E-02 0.30427008E+02</pdfrwt>
<pdfrwt beam="2">  1       21 0.87933406E-02 0.30427008E+02</pdfrwt>
<totfact> 0.48909123E+07</totfact>
</mgrwt>
</event>
<event>
 4    1  0.7499963E+004  0.2294432E+02  0.7546771E-02  0.1692414E+00
         21   -1    0    0  501  502  0.00000000000E+00  0.00000000000E+00  0.81828261426E+01  0.81828261426E+01  0.00000000000E+00 0. -1.
         21   -1    0    0  502  503 -0.00000000000E+00 -0.00000000000E+00 -0.68616528080E+02  0.68616528080E+02  0.00000000000E+00 0. -1.
          4    1    1    2  501    0  0.22750716414E+02 -0.29743232377E+01 -0.39808984763E+02  0.45947763427E+02  0.00000000000E+00 0. -1.
         -4    1    1    2    0  503 -0.22750716414E+02  0.29743232377E+01 -0.20624717174E+02  0.30851590795E+02  0.00000000000E+00 0.  1.
<mgrwt>
<rscale>  2 0.22944317E+02</rscale>
<asrwt>0</asrwt>
<pdfrwt beam="1">  1       21 0.12588964E-02 0.22944317E+02</pdfrwt>
<pdfrwt beam="2">  1       21 0.10556389E-01 0.22944317E+02</pdfrwt>
<totfact> 0.12889659E+08</totfact>
</mgrwt>
</event>
<event>
 4    1  0.7499963E+004  0.4008695E+02  0.7546771E-02  0.1507573E+00
         21   -1    0    0  503  502  0.00000000000E+00  0.00000000000E+00  0.68072107237E+01  0.68072107237E+01  0.00000000000E+00 0. -1.
         21   -1    0    0  501  503 -0.00000000000E+00 -0.00000000000E+00 -0.25236317204E+03  0.25236317204E+03  0.00000000000E+00 0. -1.
          2    1    1    2  501    0  0.18665766124E+02 -0.35476088386E+02 -0.89849346408E+02  0.98386323857E+02  0.00000000000E+00 0.  1.
         -2    1    1    2    0  502 -0.18665766124E+02  0.35476088386E+02 -0.15570661491E+03  0.16078405890E+03  0.00000000000E+00 0. -1.
<mgrwt>
<rscale>  2 0.40086951E+02</rscale>
<asrwt>0</asrwt>
<pdfrwt beam="1">  1       21 0.10472634E-02 0.40086951E+02</pdfrwt>
<pdfrwt beam="2">  1       21 0.38825097E-01 0.40086951E+02</pdfrwt>
<totfact> 0.19096499E+07</totfact>
</mgrwt>
</event>
<event>
 4    1  0.7499963E+004  0.2031495E+02  0.7546771E-02  0.1739136E+00
         21   -1    0    0  501  502  0.00000000000E+00  0.00000000000E+00  0.24217921358E+01  0.24217921358E+01  0.00000000000E+00 0.  1.
         21   -1    0    0  502  503 -0.00000000000E+00 -0.00000000000E+00 -0.17255560724E+03  0.17255560724E+03  0.00000000000E+00 0.  1.
          2    1    1    2  501    0  0.51907175720E+01 -0.19640616138E+02 -0.94822931218E+02  0.96974664918E+02  0.00000000000E+00 0. -1.
         -2    1    1    2    0  503 -0.51907175720E+01  0.19640616138E+02 -0.75310883887E+02  0.78002734458E+02  0.00000000000E+00 0.  1.
<mgrwt>
<rscale>  2 0.20314954E+02</rscale>
<asrwt>0</asrwt>
<pdfrwt beam="1">  1       21 0.37258341E-03 0.20314954E+02</pdfrwt>
<pdfrwt beam="2">  1       21 0.26547016E-01 0.20314954E+02</pdfrwt>
<totfact> 0.15557523E+08</totfact>
</mgrwt>
</event>
<event>
 4    1  0.7499963E+004  0.2060909E+02  0.7546771E-02  0.1733480E+00
         21   -1    0    0  501  502  0.00000000000E+00  0.00000000000E+00  0.57433913980E+02  0.57433913980E+02  0.00000000000E+00 0. -1.
         21   -1    0    0  502  503 -0.00000000000E+00 -0.00000000000E+00 -0.16379757793E+02  0.16379757793E+02  0.00000000000E+00 0. -1.
          1    1    1    2  501    0  0.16357099343E+02  0.12537143913E+02  0.47860983268E+02  0.52109580653E+02  0.00000000000E+00 0.  1.
         -1    1    1    2    0  503 -0.16357099343E+02 -0.12537143913E+02 -0.68068270808E+01  0.21704091120E+02  0.00000000000E+00 0. -1.
<mgrwt>
<rscale>  2 0.20609092E+02</rscale>
<asrwt>0</asrwt>
<pdfrwt beam="1">  1       21 0.88359867E-02 0.20609092E+02</pdfrwt>
<pdfrwt beam="2">  1       21 0.25199628E-02 0.20609092E+02</pdfrwt>
<totfact> 0.58140349E+07</totfact>
</mgrwt>
</event>
<event>
 4    1  0.7499963E+004  0.2241833E+02  0.7546771E-02  0.1701116E+00
         21   -1    0    0  503  502  0.00000000000E+00  0.00000000000E+00  0.30269500801E+02  0.30269500801E+02  0.00000000000E+00 0.  1.
         21   -1    0    0  501  503 -0.00000000000E+00 -0.00000000000E+00 -0.17643250474E+02  0.17643250474E+02  0.00000000000E+00 0.  1.
          2    1    1    2  501    0 -0.69306978616E+01 -0.21320110014E+02  0.49768585387E+00  0.22423856829E+02  0.00000000000E+00 0.  1.
         -2    1    1    2    0  502  0.69306978616E+01  0.21320110014E+02  0.12128564474E+02  0.25488894446E+02  0.00000000000E+00 0. -1.
<mgrwt>
<rscale>  2 0.22418333E+02</rscale>
<asrwt>0</asrwt>
<pdfrwt beam="1">  1       21 0.46568463E-02 0.22418333E+02</pdfrwt>
<pdfrwt beam="2">  1       21 0.27143462E-02 0.22418333E+02</pdfrwt>
<totfact> 0.14875643E+08</totfact>
</mgrwt>
</event>
<event>
 4    1  0.7499963E+004  0.2690964E+02  0.7546771E-02  0.1634997E+00
         21   -1    0    0  503  502  0.00000000000E+00  0.00000000000E+00  0.24526235350E+03  0.24526235350E+03  0.00000000000E+00 0.  1.
         21   -1    0    0  501  503 -0.00000000000E+00 -0.00000000000E+00 -0.29639573923E+01  0.29639573923E+01  0.00000000000E+00 0.  1.
          2    1    1    2  501    0  0.11178677319E+02 -0.24477862514E+02  0.11342093267E+03  0.11656944946E+03  0.00000000000E+00 0. -1.
         -2    1    1    2    0  502 -0.11178677319E+02  0.24477862514E+02  0.12887746344E+03  0.13165686144E+03  0.00000000000E+00 0.  1.
<mgrwt>
<rscale>  2 0.26909637E+02</rscale>
<asrwt>0</asrwt>
<pdfrwt beam="1">  1       21 0.37732654E-01 0.26909637E+02</pdfrwt>
<pdfrwt beam="2">  1       21 0.45599364E-03 0.26909637E+02</pdfrwt>
<totfact> 0.65394216E+07</totfact>
</mgrwt>
</event>
<event>
 4    1  0.7499963E+004  0.2076968E+02  0.7546771E-02  0.1730441E+00
         21   -1    0    0  503  502  0.00000000000E+00  0.00000000000E+00  0.81867022050E+00  0.81867022050E+00  0.00000000000E+00 0.  1.
         21   -1    0    0  501  503 -0.00000000000E+00 -0.00000000000E+00 -0.60556455242E+03  0.60556455242E+03  0.00000000000E+00 0.  1.
          3    1    1    2  501    0  0.95564186451E+01  0.18440568851E+02 -0.41163038339E+03  0.41215403946E+03  0.00000000000E+00 0.  1.
         -3    1    1    2    0  502 -0.95564186451E+01 -0.18440568851E+02 -0.19311549881E+03  0.19422918318E+03  0.00000000000E+00 0. -1.
<mgrwt>
<rscale>  2 0.20769683E+02</rscale>
<asrwt>0</asrwt>
<pdfrwt beam="1">  1       21 0.12594973E-03 0.20769683E+02</pdfrwt>
<pdfrwt beam="2">  1       21 0.93163430E-01 0.20769683E+02</pdfrwt>
<totfact> 0.65111151E+07</totfact>
</mgrwt>
</event>
<event>
 4    1  0.7499963E+004  0.3217317E+02  0.7546771E-02  0.1575239E+00
         21   -1    0    0  501  502  0.00000000000E+00  0.00000000000E+00  0.13786139034E+03  0.13786139034E+03  0.00000000000E+00 0.  1.
         21   -1    0    0  502  503 -0.00000000000E+00 -0.00000000000E+00 -0.88043306129E+01  0.88043306129E+01  0.00000000000E+00 0.  1.
          5    1    1    2  501    0  0.52223741167E+01 -0.31746495495E+02  0.92663584656E+02  0.98090025430E+02  0.00000000000E+00 0. -1.
         -5    1    1    2    0  503 -0.52223741167E+01  0.31746495495E+02  0.36393475067E+02  0.48575695518E+02  0.00000000000E+00 0.  1.
<mgrwt>
<rscale>  2 0.32173175E+02</rscale>
<asrwt>0</asrwt>
<pdfrwt beam="1">  1       21 0.21209443E-01 0.32173175E+02</pdfrwt>
<pdfrwt beam="2">  1       21 0.13545125E-02 0.32173175E+02</pdfrwt>
<totfact> 0.37811735E+07</totfact>
</mgrwt>
</event>
<event>
 4    1  0.7499963E+004  0.2024064E+02  0.7546771E-02  0.1740584E+00
         21   -1    0    0  501  502  0.00000000000E+00  0.00000000000E+00  0.20486009982E+02  0.20486009982E+02  0.00000000000E+00 0.  1.
         21   -1    0    0  502  503 -0.00000000000E+00 -0.00000000000E+00 -0.21729556843E+02  0.21729556843E+02  0.00000000000E+00 0.  1.
          2    1    1    2  501    0 -0.17261939465E+02 -0.10569251403E+02 -0.65798849039E+01  0.21283291913E+02  0.00000000000E+00 0.  1.
         -2    1    1    2    0  503  0.17261939465E+02  0.10569251403E+02  0.53363380438E+01  0.20932274912E+02  0.00000000000E+00 0. -1.
<mgrwt>
<rscale>  2 0.20240643E+02</rscale>
<asrwt>0</asrwt>
<pdfrwt beam="1">  1       21 0.31516939E-02 0.20240643E+02</pdfrwt>
<pdfrwt beam="2">  1       21 0.33430087E-02 0.20240643E+02</pdfrwt>
<totfact> 0.19228652E+08</totfact>
</mgrwt>
</event>
<event>
 4    1  0.7499963E+004  0.2150898E+02  0.7546771E-02  0.1716885E+00
         21   -1    0    0  503  502  0.00000000000E+00  0.00000000000E+00  0.16292456483E+02  0.16292456483E+02  0.00000000000E+00 0. -1.
         21   -1    0    0  501  503 -0.00000000000E+00 -0.00000000000E+00 -0.32579512883E+02  0.32579512883E+02  0.00000000000E+00 0. -1.
          4    1    1    2  501    0 -0.62528875451E+01 -0.20580034438E+02  0.61319061134E+00  0.21517723459E+02  0.00000000000E+00 0. -1.
         -4    1    1    2    0  502  0.62528875451E+01  0.20580034438E+02 -0.16900247012E+02  0.27354245908E+02  0.00000000000E+00 0.  1.
<mgrwt>
<rscale>  2 0.21508985E+02</rscale>
<asrwt>0</asrwt>
<pdfrwt beam="1">  1       21 0.25065318E-02 0.21508985E+02</pdfrwt>
<pdfrwt beam="2">  1       21 0.50122328E-02 0.21508985E+02</pdfrwt>
<totfact> 0.14783411E+08</totfact>
</mgrwt>
</event>
<event>
 4    1  0.7499963E+004  0.3634674E+02  0.7546771E-02  0.1536956E+00
         21   -1    0    0  501  502  0.00000000000E+00  0.00000000000E+00  0.32201680017E+03  0.32201680017E+03  0.00000000000E+00 0.  1.
         21   -1    0    0  502  503 -0.00000000000E+00 -0.00000000000E+00 -0.66370404097E+01  0.66370404097E+01  0.00000000000E+00 0.  1.
          1    1    1    2  501    0 -0.36304356347E+02 -0.17548051530E+01  0.56142673560E+02  0.66881129068E+02  0.00000000000E+00 0.  1.
         -1    1    1    2    0  503  0.36304356347E+02  0.17548051530E+01  0.25923708620E+03  0.26177271151E+03  0.00000000000E+00 0. -1.
<mgrwt>
<rscale>  2 0.36346742E+02</rscale>
<asrwt>0</asrwt>
<pdfrwt beam="1">  1       21 0.49541034E-01 0.36346742E+02</pdfrwt>
<pdfrwt beam="2">  1       21 0.10210834E-02 0.36346742E+02</pdfrwt>
<totfact> 0.12176535E+07</totfact>
</mgrwt>
</event>
<event>
 4    1  0.7499963E+004  0.2161301E+02  0.7546771E-02  0.1715032E+00
         21   -1    0    0  501  502  0.00000000000E+00  0.00000000000E+00  0.94151804619E+00  0.94151804619E+00  0.00000000000E+00 0.  1.
         21   -1    0    0  502  503 -0.00000000000E+00 -0.00000000000E+00 -0.62932567465E+03  0.62932567465E+03  0.00000000000E+00 0.  1.
          2    1    1    2  501    0  0.15738587970E+02 -0.14812798766E+02 -0.45916612075E+03  0.45967450288E+03  0.00000000000E+00 0. -1.
         -2    1    1    2    0  503 -0.15738587970E+02  0.14812798766E+02 -0.16921803586E+03  0.17059268981E+03  0.00000000000E+00 0.  1.
<mgrwt>
<rscale>  2 0.21613009E+02</rscale>
<asrwt>0</asrwt>
<pdfrwt beam="1">  1       21 0.14484776E-03 0.21613009E+02</pdfrwt>
<pdfrwt beam="2">  1       21 0.96820117E-01 0.21613009E+02</pdfrwt>
<totfact> 0.49541994E+07</totfact>
</mgrwt>
</event>
<event>
 4    1  0.7499963E+004  0.2116124E+02  0.7546771E-02  0.1723175E+00
         21   -1    0    0  503  502  0.00000000000E+00  0.00000000000E+00  0.10230470108E+02  0.10230470108E+02  0.00000000000E+00 0.  1.
         21   -1    0    0  501  503 -0.00000000000E+00 -0.00000000000E+00 -0.52246281462E+02  0.52246281462E+02  0.00000000000E+00 0.  1.
          1    1    1    2  501    0 -0.20784003607E+02 -0.39778599462E+01 -0.33589542489E+02  0.39699565996E+02  0.00000000000E+00 0.  1.
         -1    1    1    2    0  502  0.20784003607E+02  0.39778599462E+01 -0.84262688648E+01  0.22777185574E+02  0.00000000000E+00 0. -1.
<mgrwt>
<rscale>  2 0.21161242E+02</rscale>
<asrwt>0</asrwt>
<pdfrwt beam="1">  1       21 0.15739185E-02 0.21161242E+02</pdfrwt>
<pdfrwt beam="2">  1       21 0.80378894E-02 0.21161242E+02</pdfrwt>
<totfact> 0.14037190E+08</totfact>
</mgrwt>
</event>
<event>
 4    1  0.7499963E+004  0.2104373E+02  0.7546771E-02  0.1725335E+00
         21   -1    0    0  503  502  0.00000000000E+00  0.00000000000E+00  0.43119963113E+02  0.43119963113E+02  0.00000000000E+00 0. -1.
         21   -1    0    0  501  503 -0.00000000000E+00 -0.00000000000E+00 -0.10461780904E+02  0.10461780904E+02  0.00000000000E+00 0. -1.
          2    1    1    2  501    0  0.90087447015E+01  0.19017920535E+02  0.19957128407E+02  0.29002168140E+02  0.00000000000E+00 0. -1.
         -2    1    1    2    0  502 -0.90087447015E+01 -0.19017920535E+02  0.12701053802E+02  0.24579575876E+02  0.00000000000E+00 0.  1.
<mgrwt>
<rscale>  2 0.21043735E+02</rscale>
<asrwt>0</asrwt>
<pdfrwt beam="1">  1       21 0.66338404E-02 0.21043735E+02</pdfrwt>
<pdfrwt beam="2">  1       21 0.16095048E-02 0.21043735E+02</pdfrwt>
<totfact> 0.18478061E+08</totfact>
</mgrwt>
</event>
<event>
 4    1  0.7499963E+004  0.2145586E+02  0.7546771E-02  0.1717836E+00
         21   -1    0    0  503  502  0.00000000000E+00  0.00000000000E+00  0.12723780238E+03  0.12723780238E+03  0.00000000000E+00 0. -1.
         21   -1    0    0  501  503 -0.00000000000E+00 -0.00000000000E+00 -0.38855212039E+01  0.38855212039E+01  0.00000000000E+00 0. -1.
          1    1    1    2  501    0 -0.15533067152E+02 -0.14801270687E+02  0.44475006722E+02  0.49379955569E+02  0.00000000000E+00 0. -1.
         -1    1    1    2    0  502  0.15533067152E+02  0.14801270687E+02  0.78877274457E+02  0.81743368017E+02  0.00000000000E+00 0.  1.
<mgrwt>
<rscale>  2 0.21455857E+02</rscale>
<asrwt>0</asrwt>
<pdfrwt beam="1">  1       21 0.19575043E-01 0.21455857E+02</pdfrwt>
<pdfrwt beam="2">  1       21 0.59777259E-03 0.21455857E+02</pdfrwt>
<totfact> 0.13500617E+08</totfact>
</mgrwt>
</event>
<event>
 4    1  0.7499963E+004  0.2188769E+02  0.7546771E-02  0.1710202E+00
         21   -1    0    0  501  502  0.00000000000E+00  0.00000000000E+00  0.66340346844E+02  0.66340346844E+02  0.00000000000E+00 0.  1.
         21   -1    0    0  502  503 -0.00000000000E+00 -0.00000000000E+00 -0.72468502843E+01  0.72468502843E+01  0.00000000000E+00 0.  1.
          1    1    1    2  501    0 -0.21885443517E+02  0.31383638173E+00  0.27366923125E+02  0.35043110771E+02  0.00000000000E+00 0.  1.
         -1    1    1    2    0  503  0.21885443517E+02 -0.31383638173E+00  0.31726573435E+02  0.38544086358E+02  0.00000000000E+00 0. -1.
<mgrwt>
<rscale>  2 0.21887694E+02</rscale>
<asrwt>0</asrwt>
<pdfrwt beam="1">  1       21 0.10206207E-01 0.21887694E+02</pdfrwt>
<pdfrwt beam="2">  1       21 0.11149001E-02 0.21887694E+02</pdfrwt>
<totfact> 0.16140625E+08</totfact>
</mgrwt>
</event>
<event>
 4    1  0.7499963E+004  0.2031960E+02  0.7546771E-02  0.1739046E+00
         21   -1    0    0  501  502  0.00000000000E+00  0.00000000000E+00  0.18772393660E+04  0.18772393660E+04  0.00000000000E+00 0.  1.
         21   -1    0    0  502  503 -0.00000000000E+00 -0.00000000000E+00 -0.22025584689E+00  0.22025584689E+00  0.00000000000E+00 0.  1.
          1    1    1    2  501    0  0.16041636259E+02 -0.12472052329E+02  0.97387250654E+03  0.97408446512E+03  0.00000000000E+00 0.  1.
         -1    1    1    2    0  503 -0.16041636259E+02  0.12472052329E+02  0.90314660357E+03  0.90337515669E+03  0.00000000000E+00 0. -1.
<mgrwt>
<rscale>  2 0.20319601E+02</rscale>
<asrwt>0</asrwt>
<pdfrwt beam="1">  1       21 0.28879324E+00 0.20319601E+02</pdfrwt>
<pdfrwt beam="2">  1       21 0.33887018E-04 0.20319601E+02</pdfrwt>
<totfact> 0.25112788E+07</totfact>
</mgrwt>
</event>
<event>
 4    1  0.7499963E+004  0.2500056E+02  0.7546771E-02  0.1660994E+00
         21   -1    0    0  501  502  0.00000000000E+00  0.00000000000E+00  0.33262348669E+01  0.33262348669E+01  0.00000000000E+00 0. -1.
         21   -1    0    0  502  503 -0.00000000000E+00 -0.00000000000E+00 -0.19195111554E+03  0.19195111554E+03  0.00000000000E+00 0. -1.
          2    1    1    2  501    0  0.33759543400E+01 -0.24771570926E+02 -0.80142828597E+02  0.83951776452E+02  0.00000000000E+00 0.  1.
         -2    1    1    2    0  503 -0.33759543400E+01  0.24771570926E+02 -0.10848205207E+03  0.11132557395E+03  0.00000000000E+00 0. -1.
<mgrwt>
<rscale>  2 0.25000556E+02</rscale>
<asrwt>0</asrwt>
<pdfrwt beam="1">  1       21 0.51172837E-03 0.25000556E+02</pdfrwt>
<pdfrwt beam="2">  1       21 0.29530945E-01 0.25000556E+02</pdfrwt>
<totfact> 0.85297344E+07</totfact>
</mgrwt>
</event>
<event>
 4    1  0.7499963E+004  0.2021036E+02  0.7546771E-02  0.1741177E+00
         21   -1    0    0  501  502  0.00000000000E+00  0.00000000000E+00  0.11225626564E+02  0.11225626564E+02  0.00000000000E+00 0. -1.
         21   -1    0    0  502  503 -0.00000000000E+00 -0.00000000000E+00 -0.49256262033E+02  0.49256262033E+02  0.00000000000E+00 0. -1.
          5    1    1    2  501    0  0.67033471653E+01  0.19066303136E+02 -0.34473328748E+02  0.39960845505E+02  0.00000000000E+00 0.  1.
         -5    1    1    2    0  503 -0.67033471653E+01 -0.19066303136E+02 -0.35573067213E+01  0.20521043093E+02  0.00000000000E+00 0. -1.
<mgrwt>
<rscale>  2 0.20210363E+02</rscale>
<asrwt>0</asrwt>
<pdfrwt beam="1">  1       21 0.17270195E-02 0.20210363E+02</pdfrwt>
<pdfrwt beam="2">  1       21 0.75778864E-02 0.20210363E+02</pdfrwt>
<totfact> 0.13227533E+08</totfact>
</mgrwt>
</event>
<event>
 4    1  0.7499963E+004  0.2054728E+02  0.7546771E-02  0.1734659E+00
         21   -1    0    0  503  502  0.00000000000E+00  0.00000000000E+00  0.74873187233E+01  0.74873187233E+01  0.00000000000E+00 0. -1.
         21   -1    0    0  501  503 -0.00000000000E+00 -0.00000000000E+00 -0.60196077626E+02  0.60196077626E+02  0.00000000000E+00 0. -1.
          5    1    1    2  501    0  0.20186294587E+02 -0.38346316654E+01 -0.34866773239E+02  0.40470764327E+02  0.00000000000E+00 0. -1.
         -5    1    1    2    0  502 -0.20186294587E+02  0.38346316654E+01 -0.17841985665E+02  0.27212632023E+02  0.00000000000E+00 0.  1.
<mgrwt>
<rscale>  2 0.20547284E+02</rscale>
<asrwt>0</asrwt>
<pdfrwt beam="1">  1       21 0.11518952E-02 0.20547284E+02</pdfrwt>
<pdfrwt beam="2">  1       21 0.92609347E-02 0.20547284E+02</pdfrwt>
<totfact> 0.17683930E+08</totfact>
</mgrwt>
</event>
<event>
 4    1  0.7499963E+004  0.3680610E+02  0.7546771E-02  0.1533123E+00
         21   -1    0    0  501  502  0.00000000000E+00  0.00000000000E+00  0.18210712650E+03  0.18210712650E+03  0.00000000000E+00 0. -1.
         21   -1    0    0  502  503 -0.00000000000E+00 -0.00000000000E+00 -0.83670202094E+01  0.83670202094E+01  0.00000000000E+00 0. -1.
          1    1    1    2  501    0  0.18264221020E+02  0.31954772899E+02  0.55151995256E+02  0.66305594494E+02  0.00000000000E+00 0. -1.
         -1    1    1    2    0  503 -0.18264221020E+02 -0.31954772899E+02  0.11858811104E+03  0.12416855222E+03  0.00000000000E+00 0.  1.
<mgrwt>
<rscale>  2 0.36806104E+02</rscale>
<asrwt>0</asrwt>
<pdfrwt beam="1">  1       21 0.28016478E-01 0.36806104E+02</pdfrwt>
<pdfrwt beam="2">  1       21 0.12872340E-02 0.36806104E+02</pdfrwt>
<totfact> 0.25336963E+07</totfact>
</mgrwt>
</event>
<event>
 4    1  0.7499963E+004  0.2081624E+02  0.7546771E-02  0.1729567E+00
         21   -1    0    0  503  502  0.00000000000E+00  0.00000000000E+00  0.10740715646E+03  0.10740715646E+03  0.00000000000E+00 0.  1.
         21   -1    0    0  501  503 -0.00000000000E+00 -0.00000000000E+00 -0.47563052757E+01  0.47563052757E+01  0.00000000000E+00 0.  1.
          2    1    1    2  501    0 -0.47890852449E+01  0.20257846930E+02  0.73175268026E+02  0.76078482835E+02  0.00000000000E+00 0.  1.
         -2    1    1    2    0  502  0.47890852449E+01 -0.20257846930E+02  0.29475583155E+02  0.36084978898E+02  0.00000000000E+00 0. -1.
<mgrwt>
<rscale>  2 0.20816236E+02</rscale>
<asrwt>0</asrwt>
<pdfrwt beam="1">  1       21 0.16524176E-01 0.20816236E+02</pdfrwt>
<pdfrwt beam="2">  1       21 0.73173935E-03 0.20816236E+02</pdfrwt>
<totfact> 0.13278099E+08</totfact>
</mgrwt>
</event>
<event>
 4    1  0.7499963E+004  0.2643356E+02  0.7546771E-02  0.1641226E+00
         21   -1    0    0  503  502  0.00000000000E+00  0.00000000000E+00  0.41355594001E+01  0.41355594001E+01  0.00000000000E+00 0.  1.
         21   -1    0    0  501  503 -0.00000000000E+00 -0.00000000000E+00 -0.17096146953E+03  0.17096146953E+03  0.00000000000E+00 0.  1.
          4    1    1    2  501    0 -0.20029931518E+02 -0.17249206968E+02 -0.73934058461E+02  0.78517375772E+02  0.00000000000E+00 0. -1.
         -4    1    1    2    0  502  0.20029931518E+02  0.17249206968E+02 -0.92891851666E+02  0.96579653155E+02  0.00000000000E+00 0.  1.
<mgrwt>
<rscale>  2 0.26433564E+02</rscale>
<asrwt>0</asrwt>
<pdfrwt beam="1">  1       21 0.63624002E-03 0.26433564E+02</pdfrwt>
<pdfrwt beam="2">  1       21 0.26301760E-01 0.26433564E+02</pdfrwt>
<totfact> 0.77179464E+07</totfact>
</mgrwt>
</event>
<event>
 4    1  0.7499963E+004  0.2628845E+02  0.7546771E-02  0.1643157E+00
         21   -1    0    0  503  502  0.00000000000E+00  0.00000000000E+00  0.11890758661E+02  0.11890758661E+02  0.00000000000E+00 0.  1.
         21   -1    0    0  501  503 -0.00000000000E+00 -0.00000000000E+00 -0.73413690480E+02  0.73413690480E+02  0.00000000000E+00 0.  1.
          1    1    1    2  501    0  0.77542828098E+01 -0.25118789207E+02 -0.11293554492E+02  0.28611655775E+02  0.00000000000E+00 0.  1.
         -1    1    1    2    0  502 -0.77542828098E+01  0.25118789207E+02 -0.50229377326E+02  0.56692793366E+02  0.00000000000E+00 0. -1.
<mgrwt>
<rscale>  2 0.26288448E+02</rscale>
<asrwt>0</asrwt>
<pdfrwt beam="1">  1       21 0.18293475E-02 0.26288448E+02</pdfrwt>
<pdfrwt beam="2">  1       21 0.11294414E-01 0.26288448E+02</pdfrwt>
<totfact> 0.67571935E+07</totfact>
</mgrwt>
</event>
<event>
 4    1  0.7499963E+004  0.3059880E+02  0.7546771E-02  0.1591563E+00
         21   -1    0    0  501  502  0.00000000000E+00  0.00000000000E+00  0.68536978610E+01  0.68536978610E+01  0.00000000000E+00 0. -1.
         21   -1    0    0  502  503 -0.00000000000E+00 -0.00000000000E+00 -0.13839350813E+03  0.13839350813E+03  0.00000000000E+00 0. -1.
          4    1    1    2  501    0 -0.25440443071E+01  0.30492855125E+02 -0.57526449104E+02  0.65158105571E+02  0.00000000000E+00 0. -1.
         -4    1    1    2    0  503  0.25440443071E+01 -0.30492855125E+02 -0.74013361164E+02  0.80089100419E+02  0.00000000000E+00 0.  1.
<mgrwt>
<rscale>  2 0.30598797E+02</rscale>
<asrwt>0</asrwt>
<pdfrwt beam="1">  1       21 0.10544152E-02 0.30598797E+02</pdfrwt>
<pdfrwt beam="2">  1       21 0.21291307E-01 0.30598797E+02</pdfrwt>
<totfact> 0.54470226E+07</totfact>
</mgrwt>
</event>
<event>
 4    1  0.7499963E+004  0.2893598E+02  0.7546771E-02  0.1610157E+00
         21   -1    0    0  503  502  0.00000000000E+00  0.00000000000E+00  0.18027151766E+02  0.18027151766E+02  0.00000000000E+00 0. -1.
         21   -1    0    0  501  503 -0.00000000000E+00 -0.00000000000E+00 -0.47920380630E+02  0.47920380630E+02  0.00000000000E+00 0. -1.
          1    1    1    2  501    0 -0.25416225087E+02 -0.13831353599E+02 -0.91630052026E+01  0.30352125204E+02  0.00000000000E+00 0. -1.
         -1    1    1    2    0  502  0.25416225087E+02  0.13831353599E+02 -0.20730223661E+02  0.35595407191E+02  0.00000000000E+00 0.  1.
<mgrwt>
<rscale>  2 0.28935978E+02</rscale>
<asrwt>0</asrwt>
<pdfrwt beam="1">  1       21 0.27734081E-02 0.28935978E+02</pdfrwt>
<pdfrwt beam="2">  1       21 0.73723660E-02 0.28935978E+02</pdfrwt>
<totfact> 0.73571407E+07</totfact>
</mgrwt>
</event>
<event>
 4    1  0.7499963E+004  0.2434627E+02  0.7546771E-02  0.1670573E+00
         21   -1    0    0  503  502  0.00000000000E+00  0.00000000000E+00  0.21675780439E+04  0.21675780439E+04  0.00000000000E+00 0. -1.
         21   -1    0    0  501  503 -0.00000000000E+00 -0.00000000000E+00 -0.28178747630E+00  0.28178747630E+00  0.00000000000E+00 0. -1.
          5    1    1    2  501    0 -0.62088005752E+01  0.23541274915E+02  0.12700103835E+04  0.12702437227E+04  0.00000000000E+00 0. -1.
         -5    1    1    2    0  502  0.62088005752E+01 -0.23541274915E+02  0.89728587295E+03  0.89761610871E+03  0.00000000000E+00 0.  1.
<mgrwt>
<rscale>  2 0.24346269E+02</rscale>
<asrwt>0</asrwt>
<pdfrwt beam="1">  1       21 0.33346019E+00 0.24346269E+02</pdfrwt>
<pdfrwt beam="2">  1       21 0.43353655E-04 0.24346269E+02</pdfrwt>
<totfact> 0.10894374E+07</totfact>
</mgrwt>
</event>
<event>
 4    1  0.7499963E+004  0.2315708E+02  0.7546771E-02  0.1688977E+00
         21   -1    0    0  501  502  0.00000000000E+00  0.00000000000E+00  0.37446194369E+01  0.37446194369E+01  0.00000000000E+00 0.  1.
         21   -1    0    0  502  503 -0.00000000000E+00 -0.00000000000E+00 -0.14351353690E+03  0.14351353690E+03  0.00000000000E+00 0.  1.
          5    1    1    2  501    0  0.18518132874E+02  0.13904282095E+02 -0.66473587378E+02  0.70391676530E+02  0.00000000000E+00 0.  1.
         -5    1    1    2    0  503 -0.18518132874E+02 -0.13904282095E+02 -0.73295330087E+02  0.76866479810E+02  0.00000000000E+00 0. -1.
<mgrwt>
<rscale>  2 0.23157079E+02</rscale>
<asrwt>0</asrwt>
<pdfrwt beam="1">  1       21 0.57609548E-03 0.23157079E+02</pdfrwt>
<pdfrwt beam="2">  1       21 0.22078999E-01 0.23157079E+02</pdfrwt>
<totfact> 0.11807004E+08</totfact>
</mgrwt>
</event>
<event>
 4    1  0.7499963E+004  0.2018555E+02  0.7546771E-02  0.1741663E+00
         21   -1    0    0  501  502  0.00000000000E+00  0.00000000000E+00  0.87302861558E+00  0.87302861558E+00  0.00000000000E+00 0.  1.
         21   -1    0    0  502  503 -0.00000000000E+00 -0.00000000000E+00 -0.65094013038E+03  0.65094013038E+03  0.00000000000E+00 0.  1.
          2    1    1    2  501    0 -0.14791607860E+02 -0.13735531279E+02 -0.49841226694E+03  0.49882085394E+03  0.00000000000E+00 0.  1.
         -2    1    1    2    0  503  0.14791607860E+02  0.13735531279E+02 -0.15165483482E+03  0.15299230506E+03  0.00000000000E+00 0. -1.
<mgrwt>
<rscale>  2 0.20185551E+02</rscale>
<asrwt>0</asrwt>
<pdfrwt beam="1">  1       21 0.13431200E-03 0.20185551E+02</pdfrwt>
<pdfrwt beam="2">  1       21 0.10014471E+00 0.20185551E+02</pdfrwt>
<totfact> 0.50484844E+07</totfact>
</mgrwt>
</event>
<event>
 4    1  0.7499963E+004  0.2552459E+02  0.7546771E-02  0.1653579E+00
         21   -1    0    0  501  502  0.00000000000E+00  0.00000000000E+00  0.60354887937E+03  0.60354887937E+03  0.00000000000E+00 0. -1.
         21   -1    0    0  502  503 -0.00000000000E+00 -0.00000000000E+00 -0.11734029366E+01  0.11734029366E+01  0.00000000000E+00 0. -1.
          1    1    1    2  501    0  0.24522037854E+02 -0.70833941477E+01  0.38674213748E+03  0.38758352095E+03  0.00000000000E+00 0. -1.
         -1    1    1    2    0  503 -0.24522037854E+02  0.70833941477E+01  0.21563333896E+03  0.21713876136E+03  0.00000000000E+00 0.  1.
<mgrwt>
<rscale>  2 0.25524592E+02</rscale>
<asrwt>0</asrwt>
<pdfrwt beam="1">  1       21 0.92853426E-01 0.25524592E+02</pdfrwt>
<pdfrwt beam="2">  1       21 0.18052401E-03 0.25524592E+02</pdfrwt>
<totfact> 0.40944489E+07</totfact>
</mgrwt>
</event>
<event>
 4    1  0.7499963E+004  0.2583435E+02  0.7546771E-02  0.1649299E+00
         21   -1    0    0  501  502  0.00000000000E+00  0.00000000000E+00  0.52536724682E+03  0.52536724682E+03  0.00000000000E+00 0. -1.
         21   -1    0    0  502  503 -0.00000000000E+00 -0.00000000000E+00 -0.12708030926E+01  0.12708030926E+01  0.00000000000E+00 0. -1.
          3    1    1    2  501    0  0.42628820136E+01  0.25480218017E+02  0.25721803831E+03  0.25851215234E+03  0.00000000000E+00 0. -1.
         -3    1    1    2    0  503 -0.42628820136E+01 -0.25480218017E+02  0.26687840541E+03  0.26812589757E+03  0.00000000000E+00 0.  1.
<mgrwt>
<rscale>  2 0.25834351E+02</rscale>
<asrwt>0</asrwt>
<pdfrwt beam="1">  1       21 0.80825557E-01 0.25834351E+02</pdfrwt>
<pdfrwt beam="2">  1       21 0.19550859E-03 0.25834351E+02</pdfrwt>
<totfact> 0.49198401E+07</totfact>
</mgrwt>
</event>
<event>
 4    1  0.7499963E+004  0.3144893E+02  0.7546771E-02  0.1582604E+00
         21   -1    0    0  503  502  0.00000000000E+00  0.00000000000E+00  0.13465377476E+02  0.13465377476E+02  0.00000000000E+00 0. -1.
         21   -1    0    0  501  503 -0.00000000000E+00 -0.00000000000E+00 -0.73514798584E+02  0.73514798584E+02  0.00000000000E+00 0. -1.
          5    1    1    2  501    0 -0.59998242083E+01  0.30871303418E+02 -0.31313450876E+02  0.44379809272E+02  0.00000000000E+00 0.  1.
         -5    1    1    2    0  502  0.59998242083E+01 -0.30871303418E+02 -0.28735970233E+02  0.42600366788E+02  0.00000000000E+00 0. -1.
<mgrwt>
<rscale>  2 0.31448931E+02</rscale>
<asrwt>0</asrwt>
<pdfrwt beam="1">  1       21 0.20715966E-02 0.31448931E+02</pdfrwt>
<pdfrwt beam="2">  1       21 0.11309969E-01 0.31448931E+02</pdfrwt>
<totfact> 0.58009102E+07</totfact>
</mgrwt>
</event>
<event>
 4    1  0.7499963E+004  0.4856313E+02  0.7546771E-02  0.1453249E+00
         21   -1    0    0  501  502  0.00000000000E+00  0.00000000000E+00  0.22578891635E+03  0.22578891635E+03  0.00000000000E+00 0.  1.
         21   -1    0    0  502  503 -0.00000000000E+00 -0.00000000000E+00 -0.10723439285E+02  0.10723439285E+02  0.00000000000E+00 0.  1.
          2    1    1    2  501    0 -0.28383391835E+02  0.39405089463E+02  0.12658637656E+03  0.13558203693E+03  0.00000000000E+00 0. -1.
         -2    1    1    2    0  503  0.28383391835E+02 -0.39405089463E+02  0.88479100510E+02  0.10093031871E+03  0.00000000000E+00 0.  1.
<mgrwt>
<rscale>  2 0.48563134E+02</rscale>
<asrwt>0</asrwt>
<pdfrwt beam="1">  1       21 0.34736753E-01 0.48563134E+02</pdfrwt>
<pdfrwt beam="2">  1       21 0.16497601E-02 0.48563134E+02</pdfrwt>
<totfact> 0.12002103E+07</totfact>
</mgrwt>
</event>
<event>
 4    1  0.7499963E+004  0.2329030E+02  0.7546771E-02  0.1686847E+00
         21   -1    0    0  503  502  0.00000000000E+00  0.00000000000E+00  0.69030438726E+02  0.69030438726E+02  0.00000000000E+00 0.  1.
         21   -1    0    0  501  503 -0.00000000000E+00 -0.00000000000E+00 -0.79170545256E+01  0.79170545256E+01  0.00000000000E+00 0.  1.
          1    1    1    2  501    0 -0.22530412680E+01  0.23181062259E+02  0.27232490398E+02  0.35833592837E+02  0.00000000000E+00 0. -1.
         -1    1    1    2    0  502  0.22530412680E+01 -0.23181062259E+02  0.33880893803E+02  0.41113900415E+02  0.00000000000E+00 0.  1.
<mgrwt>
<rscale>  2 0.23290295E+02</rscale>
<asrwt>0</asrwt>
<pdfrwt beam="1">  1       21 0.10620067E-01 0.23290295E+02</pdfrwt>
<pdfrwt beam="2">  1       21 0.12180084E-02 0.23290295E+02</pdfrwt>
<totfact> 0.13473766E+08</totfact>
</mgrwt>
</event>
<event>
 4    1  0.7499963E+004  0.2744019E+02  0.7546771E-02  0.1628240E+00
         21   -1    0    0  501  502  0.00000000000E+00  0.00000000000E+00  0.13992315934E+04  0.13992315934E+04  0.00000000000E+00 0. -1.
         21   -1    0    0  502  503 -0.00000000000E+00 -0.00000000000E+00 -0.61807008626E+00  0.61807008626E+00  0.00000000000E+00 0. -1.
          5    1    1    2  501    0 -0.95349178303E+01  0.25730317335E+02  0.95103027995E+03  0.95142606506E+03  0.00000000000E+00 0. -1.
         -5    1    1    2    0  503  0.95349178303E+01 -0.25730317335E+02  0.44758324336E+03  0.44842359843E+03  0.00000000000E+00 0.  1.
<mgrwt>
<rscale>  2 0.27440187E+02</rscale>
<asrwt>0</asrwt>
<pdfrwt beam="1">  1       21 0.21526386E+00 0.27440187E+02</pdfrwt>
<pdfrwt beam="2">  1       21 0.95088826E-04 0.27440187E+02</pdfrwt>
<totfact> 0.14049501E+07</totfact>
</mgrwt>
</event>
<event>
 4    1  0.7499963E+004  0.2520016E+02  0.7546771E-02  0.1658143E+00
         21   -1    0    0  503  502  0.00000000000E+00  0.00000000000E+00  0.29909166719E+03  0.29909166719E+03  0.00000000000E+00 0. -1.
         21   -1    0    0  501  503 -0.00000000000E+00 -0.00000000000E+00 -0.22575580710E+01  0.22575580710E+01  0.00000000000E+00 0. -1.
          2    1    1    2  501    0  0.20416414361E+02  0.14772207010E+02  0.11166661630E+03  0.11447480627E+03  0.00000000000E+00 0.  1.
         -2    1    1    2    0  502 -0.20416414361E+02 -0.14772207010E+02  0.18516749282E+03  0.18687441899E+03  0.00000000000E+00 0. -1.
<mgrwt>
<rscale>  2 0.25200160E+02</rscale>
<asrwt>0</asrwt>
<pdfrwt beam="1">  1       21 0.46014071E-01 0.25200160E+02</pdfrwt>
<pdfrwt beam="2">  1       21 0.34731686E-03 0.25200160E+02</pdfrwt>
<totfact> 0.65915839E+07</totfact>
</mgrwt>
</event>
<event>
 4    1  0.7499963E+004  0.2177709E+02  0.7546771E-02  0.1712136E+00
         21   -1    0    0  503  502  0.00000000000E+00  0.00000000000E+00  0.13912673805E+04  0.13912673805E+04  0.00000000000E+00 0. -1.
         21   -1    0    0  501  503 -0.00000000000E+00 -0.00000000000E+00 -0.41577484986E+00  0.41577484986E+00  0.00000000000E+00 0. -1.
          5    1    1    2  501    0  0.16629820981E+02  0.14060246072E+02  0.99077508278E+03  0.99101438240E+03  0.00000000000E+00 0. -1.
         -5    1    1    2    0  502 -0.16629820981E+02 -0.14060246072E+02  0.40007652288E+03  0.40066877296E+03  0.00000000000E+00 0.  1.
<mgrwt>
<rscale>  2 0.21777086E+02</rscale>
<asrwt>0</asrwt>
<pdfrwt beam="1">  1       21 0.21403741E+00 0.21777086E+02</pdfrwt>
<pdfrwt beam="2">  1       21 0.63966476E-04 0.21777086E+02</pdfrwt>
<totfact> 0.24360262E+07</totfact>
</mgrwt>
</event>
<event>
 4    1  0.7499963E+004  0.2179421E+02  0.7546771E-02  0.1711836E+00
         21   -1    0    0  503  502  0.00000000000E+00  0.00000000000E+00  0.14598423244E+02  0.14598423244E+02  0.00000000000E+00 0.  1.
         21   -1    0    0  501  503 -0.00000000000E+00 -0.00000000000E+00 -0.37229084026E+02  0.37229084026E+02  0.00000000000E+00 0.  1.
          4    1    1    2  501    0  0.17641043883E+02  0.12797698874E+02 -0.20515088059E+02  0.29930859724E+02  0.00000000000E+00 0.  1.
         -4    1    1    2    0  502 -0.17641043883E+02 -0.12797698874E+02 -0.21155727230E+01  0.21896647545E+02  0.00000000000E+00 0. -1.
<mgrwt>
<rscale>  2 0.21794209E+02</rscale>
<asrwt>0</asrwt>
<pdfrwt beam="1">  1       21 0.22459113E-02 0.21794209E+02</pdfrwt>
<pdfrwt beam="2">  1       21 0.57275514E-02 0.21794209E+02</pdfrwt>
<totfact> 0.14211635E+08</totfact>
</mgrwt>
</event>
<event>
 4    1  0.7499963E+004  0.4691859E+02  0.7546771E-02  0.1462708E+00
         21   -1    0    0  501  502  0.00000000000E+00  0.00000000000E+00  0.14341109064E+03  0.14341109064E+03  0.00000000000E+00 0.  1.
         21   -1    0    0  502  503 -0.00000000000E+00 -0.00000000000E+00 -0.15623815054E+02  0.15623815054E+02  0.00000000000E+00 0.  1.
          5    1    1    2  501    0  0.44766727155E+02  0.14046147068E+02  0.53365986487E+02  0.71058304380E+02  0.00000000000E+00 0. -1.
         -5    1    1    2    0  503 -0.44766727155E+02 -0.14046147068E+02  0.74421289102E+02  0.87976601316E+02  0.00000000000E+00 0.  1.
<mgrwt>
<rscale>  2 0.46918590E+02</rscale>
<asrwt>0</asrwt>
<pdfrwt beam="1">  1       21 0.22063244E-01 0.46918590E+02</pdfrwt>
<pdfrwt beam="2">  1       21 0.24036640E-02 0.46918590E+02</pdfrwt>
<totfact> 0.15350095E+07</totfact>
</mgrwt>
</event>
<event>
 4    1  0.7499963E+004  0.5621670E+02  0.7546771E-02  0.1414431E+00
         21   -1    0    0  501  502  0.00000000000E+00  0.00000000000E+00  0.70536128724E+02  0.70536128724E+02  0.00000000000E+00 0.  1.
         21   -1    0    0  502  503 -0.00000000000E+00 -0.00000000000E+00 -0.56344644565E+02  0.56344644565E+02  0.00000000000E+00 0.  1.
          3    1    1    2  501    0  0.24241400428E+02 -0.50721515053E+02 -0.21615371106E+02  0.60229078127E+02  0.00000000000E+00 0.  1.
         -3    1    1    2    0  503 -0.24241400428E+02  0.50721515053E+02  0.35806855265E+02  0.66651695162E+02  0.00000000000E+00 0. -1.
<mgrwt>
<rscale>  2 0.56216702E+02</rscale>
<asrwt>0</asrwt>
<pdfrwt beam="1">  1       21 0.10851712E-01 0.56216702E+02</pdfrwt>
<pdfrwt beam="2">  1       21 0.86684068E-02 0.56216702E+02</pdfrwt>
<totfact> 0.67370160E+06</totfact>
</mgrwt>
</event>
<event>
 4    1  0.7499963E+004  0.2153307E+02  0.7546771E-02  0.1716455E+00
         21   -1    0    0  501  502  0.00000000000E+00  0.00000000000E+00  0.18605808801E+02  0.18605808801E+02  0.00000000000E+00 0.  1.
         21   -1    0    0  502  503 -0.00000000000E+00 -0.00000000000E+00 -0.26616312618E+02  0.26616312618E+02  0.00000000000E+00 0.  1.
          5    1    1    2  501    0 -0.18076271188E+02 -0.11701351725E+02  0.17014696320E+01  0.21600190073E+02  0.00000000000E+00 0. -1.
         -5    1    1    2    0  503  0.18076271188E+02  0.11701351725E+02 -0.97119734485E+01  0.23621931346E+02  0.00000000000E+00 0.  1.
<mgrwt>
<rscale>  2 0.21533073E+02</rscale>
<asrwt>0</asrwt>
<pdfrwt beam="1">  1       21 0.28624321E-02 0.21533073E+02</pdfrwt>
<pdfrwt beam="2">  1       21 0.40948173E-02 0.21533073E+02</pdfrwt>
<totfact> 0.16577472E+08</totfact>
</mgrwt>
</event>
<event>
 4    1  0.7499963E+004  0.2001681E+02  0.7546771E-02  0.1744994E+00
         21   -1    0    0  503  502  0.00000000000E+00  0.00000000000E+00  0.13821773101E+01  0.13821773101E+01  0.00000000000E+00 0.  1.
         21   -1    0    0  501  503 -0.00000000000E+00 -0.00000000000E+00 -0.29032268034E+03  0.29032268034E+03  0.00000000000E+00 0.  1.
          1    1    1    2  501    0  0.17086941559E+02 -0.10426367969E+02 -0.13880836097E+03  0.14024419345E+03  0.00000000000E+00 0.  1.
         -1    1    1    2    0  502 -0.17086941559E+02  0.10426367969E+02 -0.15013214206E+03  0.15146066420E+03  0.00000000000E+00 0. -1.
<mgrwt>
<rscale>  2 0.20016811E+02</rscale>
<asrwt>0</asrwt>
<pdfrwt beam="1">  1       21 0.21264265E-03 0.20016811E+02</pdfrwt>
<pdfrwt beam="2">  1       21 0.44665031E-01 0.20016811E+02</pdfrwt>
<totfact> 0.13401966E+08</totfact>
</mgrwt>
</event>
<event>
 4    1  0.7499963E+004  0.2153449E+02  0.7546771E-02  0.1716429E+00
         21   -1    0    0  503  502  0.00000000000E+00  0.00000000000E+00  0.96608421501E+01  0.96608421501E+01  0.00000000000E+00 0. -1.
         21   -1    0    0  501  503 -0.00000000000E+00 -0.00000000000E+00 -0.49128607862E+02  0.49128607862E+02  0.00000000000E+00 0. -1.
          3    1    1    2  501    0  0.83609266084E+01 -0.19845126176E+02 -0.24186348961E+02  0.32383847868E+02  0.00000000000E+00 0.  1.
         -3    1    1    2    0  502 -0.83609266084E+01  0.19845126176E+02 -0.15281416751E+02  0.26405602144E+02  0.00000000000E+00 0. -1.
<mgrwt>
<rscale>  2 0.21534487E+02</rscale>
<asrwt>0</asrwt>
<pdfrwt beam="1">  1       21 0.14862834E-02 0.21534487E+02</pdfrwt>
<pdfrwt beam="2">  1       21 0.75582475E-02 0.21534487E+02</pdfrwt>
<totfact> 0.17011972E+08</totfact>
</mgrwt>
</event>
<event>
 4    1  0.7499963E+004  0.3256535E+02  0.7546771E-02  0.1571348E+00
         21   -1    0    0  501  502  0.00000000000E+00  0.00000000000E+00  0.64173482077E+03  0.64173482077E+03  0.00000000000E+00 0.  1.
         21   -1    0    0  502  503 -0.00000000000E+00 -0.00000000000E+00 -0.17900861290E+01  0.17900861290E+01  0.00000000000E+00 0.  1.
          1    1    1    2  501    0 -0.29255221241E+02  0.14305033092E+02  0.40915889630E+03  0.41045280407E+03  0.00000000000E+00 0.  1.
         -1    1    1    2    0  503  0.29255221241E+02 -0.14305033092E+02  0.23078583834E+03  0.23307210283E+03  0.00000000000E+00 0. -1.
<mgrwt>
<rscale>  2 0.32565349E+02</rscale>
<asrwt>0</asrwt>
<pdfrwt beam="1">  1       21 0.98728250E-01 0.32565349E+02</pdfrwt>
<pdfrwt beam="2">  1       21 0.27539838E-03 0.32565349E+02</pdfrwt>
<totfact> 0.20181361E+07</totfact>
</mgrwt>
</event>
<event>
 4    1  0.7499963E+004  0.2107630E+02  0.7546771E-02  0.1724735E+00
         21   -1    0    0  501  502  0.00000000000E+00  0.00000000000E+00  0.19390034173E+03  0.19390034173E+03  0.00000000000E+00 0. -1.
         21   -1    0    0  502  503 -0.00000000000E+00 -0.00000000000E+00 -0.33386732083E+01  0.33386732083E+01  0.00000000000E+00 0. -1.
          3    1    1    2  501    0  0.87894810652E+01  0.19156076670E+02  0.40034268390E+02  0.45243263546E+02  0.00000000000E+00 0. -1.
         -3    1    1    2    0  503 -0.87894810652E+01 -0.19156076670E+02  0.15052740013E+03  0.15199575139E+03  0.00000000000E+00 0.  1.
<mgrwt>
<rscale>  2 0.21076296E+02</rscale>
<asrwt>0</asrwt>
<pdfrwt beam="1">  1       21 0.29830813E-01 0.21076296E+02</pdfrwt>
<pdfrwt beam="2">  1       21 0.51364219E-03 0.21076296E+02</pdfrwt>
<totfact> 0.79647841E+07</totfact>
</mgrwt>
</event>
<event>
 4    1  0.7499963E+004  0.3312882E+02  0.7546771E-02  0.1565874E+00
         21   -1    0    0  503  502  0.00000000000E+00  0.00000000000E+00  0.20775082423E+02  0.20775082423E+02  0.00000000000E+00 0. -1.
         21   -1    0    0  501  503 -0.00000000000E+00 -0.00000000000E+00 -0.54708850864E+02  0.54708850864E+02  0.00000000000E+00 0. -1.
          3    1    1    2  501    0  0.23002714893E+02  0.23841015372E+02 -0.23963716710E+02  0.40887389559E+02  0.00000000000E+00 0. -1.
         -3    1    1    2    0  502 -0.23002714893E+02 -0.23841015372E+02 -0.99700517306E+01  0.34596543728E+02  0.00000000000E+00 0.  1.
<mgrwt>
<rscale>  2 0.33128823E+02</rscale>
<asrwt>0</asrwt>
<pdfrwt beam="1">  1       21 0.31961666E-02 0.33128823E+02</pdfrwt>
<pdfrwt beam="2">  1       21 0.84167462E-02 0.33128823E+02</pdfrwt>
<totfact> 0.48749419E+07</totfact>
</mgrwt>
</event>
<event>
 4    1  0.7499963E+004  0.2249248E+02  0.7546771E-02  0.1699871E+00
         21   -1    0    0  503  502  0.00000000000E+00  0.00000000000E+00  0.17154555839E+02  0.17154555839E+02  0.00000000000E+00 0.  1.
         21   -1    0    0  501  503 -0.00000000000E+00 -0.00000000000E+00 -0.41915928185E+02  0.41915928185E+02  0.00000000000E+00 0.  1.
          1    1    1    2  501    0 -0.21874222889E+02  0.52373848552E+01  0.36994967382E+01  0.22794694629E+02  0.00000000000E+00 0. -1.
         -1    1    1    2    0  502  0.21874222889E+02 -0.52373848552E+01 -0.28460869085E+02  0.36275789394E+02  0.00000000000E+00 0.  1.
<mgrwt>
<rscale>  2 0.22492484E+02</rscale>
<asrwt>0</asrwt>
<pdfrwt beam="1">  1       21 0.26391624E-02 0.22492484E+02</pdfrwt>
<pdfrwt beam="2">  1       21 0.64486043E-02 0.22492484E+02</pdfrwt>
<totfact> 0.92456118E+07</totfact>
</mgrwt>
</event>
<event>
 4    1  0.7499963E+004  0.2066678E+02  0.7546771E-02  0.1732384E+00
         21   -1    0    0  503  502  0.00000000000E+00  0.00000000000E+00  0.89857400157E+03  0.89857400157E+03  0.00000000000E+00 0.  1.
         21   -1    0    0  501  503 -0.00000000000E+00 -0.00000000000E+00 -0.60951364838E+00  0.60951364838E+00  0.00000000000E+00 0.  1.
          2    1    1    2  501    0  0.20586748042E+02 -0.18170225594E+01  0.23803076720E+03  0.23892626875E+03  0.00000000000E+00 0.  1.
         -2    1    1    2    0  502 -0.20586748042E+02  0.18170225594E+01  0.65993372072E+03  0.66025724646E+03  0.00000000000E+00 0. -1.
<mgrwt>
<rscale>  2 0.20666779E+02</rscale>
<asrwt>0</asrwt>
<pdfrwt beam="1">  1       21 0.13824109E+00 0.20666779E+02</pdfrwt>
<pdfrwt beam="2">  1       21 0.93772049E-04 0.20666779E+02</pdfrwt>
<totfact> 0.41031402E+07</totfact>
</mgrwt>
</event>
<event>
 4    1  0.7499963E+004  0.3177834E+02  0.7546771E-02  0.1579224E+00
         21   -1    0    0  501  502  0.00000000000E+00  0.00000000000E+00  0.22869985497E+02  0.22869985497E+02  0.00000000000E+00 0.  1.
         21   -1    0    0  502  503 -0.00000000000E+00 -0.00000000000E+00 -0.44537740493E+02  0.44537740493E+02  0.00000000000E+00 0.  1.
          3    1    1    2  501    0  0.28176995321E+02  0.14694218413E+02 -0.77164212154E+01  0.32701777879E+02  0.00000000000E+00 0.  1.
         -3    1    1    2    0  503 -0.28176995321E+02 -0.14694218413E+02 -0.13951333780E+02  0.34705948111E+02  0.00000000000E+00 0. -1.
<mgrwt>
<rscale>  2 0.31778344E+02</rscale>
<asrwt>0</asrwt>
<pdfrwt beam="1">  1       21 0.35184593E-02 0.31778344E+02</pdfrwt>
<pdfrwt beam="2">  1       21 0.68519601E-02 0.31778344E+02</pdfrwt>
<totfact> 0.58244721E+07</totfact>
</mgrwt>
</event>
<event>
 4    1  0.7499963E+004  0.2757146E+02  0.7546771E-02  0.1626596E+00
         21   -1    0    0  501  502  0.00000000000E+00  0.00000000000E+00  0.20812137257E+02  0.20812137257E+02  0.00000000000E+00 0.  1.
         21   -1    0    0  502  503 -0.00000000000E+00 -0.00000000000E+00 -0.36699758091E+02  0.36699758091E+02  0.00000000000E+00 0.  1.
          3    1    1    2  501    0  0.19760164408E+02  0.19228135897E+02 -0.59654855366E+01  0.28209436811E+02  0.00000000000E+00 0.  1.
         -3    1    1    2    0  503 -0.19760164408E+02 -0.19228135897E+02 -0.99221352971E+01  0.29302458538E+02  0.00000000000E+00 0. -1.
<mgrwt>
<rscale>  2 0.27571458E+02</rscale>
<asrwt>0</asrwt>
<pdfrwt beam="1">  1       21 0.32018673E-02 0.27571458E+02</pdfrwt>
<pdfrwt beam="2">  1       21 0.56461166E-02 0.27571458E+02</pdfrwt>
<totfact> 0.89510346E+07</totfact>
</mgrwt>
</event>
<event>
 4    1  0.7499963E+004  0.2518485E+02  0.7546771E-02  0.1658361E+00
         21   -1    0    0  501  502  0.00000000000E+00  0.00000000000E+00  0.10237633088E+03  0.10237633088E+03  0.00000000000E+00 0.  1.
         21   -1    0    0  502  503 -0.00000000000E+00 -0.00000000000E+00 -0.70130629529E+01  0.70130629529E+01  0.00000000000E+00 0.  1.
          2    1    1    2  501    0  0.78110895041E+01 -0.23942922278E+02  0.66355805583E+02  0.70974429065E+02  0.00000000000E+00 0.  1.
         -2    1    1    2    0  503 -0.78110895041E+01  0.23942922278E+02  0.29007462342E+02  0.38414964766E+02  0.00000000000E+00 0. -1.
<mgrwt>
<rscale>  2 0.25184850E+02</rscale>
<asrwt>0</asrwt>
<pdfrwt beam="1">  1       21 0.15750204E-01 0.25184850E+02</pdfrwt>
<pdfrwt beam="2">  1       21 0.10789328E-02 0.25184850E+02</pdfrwt>
<totfact> 0.85019432E+07</totfact>
</mgrwt>
</event>
<event>
 4    1  0.7499963E+004  0.2092758E+02  0.7546771E-02  0.1727487E+00
         21   -1    0    0  501  502  0.00000000000E+00  0.00000000000E+00  0.93703130384E+03  0.93703130384E+03  0.00000000000E+00 0.  1.
         21   -1    0    0  502  503 -0.00000000000E+00 -0.00000000000E+00 -0.47049429534E+00  0.47049429534E+00  0.00000000000E+00 0.  1.
          4    1    1    2  501    0 -0.20287136518E+02  0.51376628720E+01  0.43023381520E+03  0.43074249759E+03  0.00000000000E+00 0. -1.
         -4    1    1    2    0  503  0.20287136518E+02 -0.51376628720E+01  0.50632699434E+03  0.50675930054E+03  0.00000000000E+00 0.  1.
<mgrwt>
<rscale>  2 0.20927577E+02</rscale>
<asrwt>0</asrwt>
<pdfrwt beam="1">  1       21 0.14415717E+00 0.20927577E+02</pdfrwt>
<pdfrwt beam="2">  1       21 0.72384488E-04 0.20927577E+02</pdfrwt>
<totfact> 0.53817065E+07</totfact>
</mgrwt>
</event>
<event>
 4    1  0.7499963E+004  0.2358174E+02  0.7546771E-02  0.1682250E+00
         21   -1    0    0  503  502  0.00000000000E+00  0.00000000000E+00  0.87798736780E+02  0.87798736780E+02  0.00000000000E+00 0.  1.
         21   -1    0    0  501  503 -0.00000000000E+00 -0.00000000000E+00 -0.65491246490E+01  0.65491246490E+01  0.00000000000E+00 0.  1.
          3    1    1    2  501    0  0.30456753321E+01  0.23384235841E+02  0.32070811541E+02  0.39807481420E+02  0.00000000000E+00 0. -1.
         -3    1    1    2    0  502 -0.30456753321E+01 -0.23384235841E+02  0.49178800590E+02  0.54540380009E+02  0.00000000000E+00 0.  1.
<mgrwt>
<rscale>  2 0.23581743E+02</rscale>
<asrwt>0</asrwt>
<pdfrwt beam="1">  1       21 0.13507497E-01 0.23581743E+02</pdfrwt>
<pdfrwt beam="2">  1       21 0.10075577E-02 0.23581743E+02</pdfrwt>
<totfact> 0.12028428E+08</totfact>
</mgrwt>
</event>
<event>
 4    1  0.7499963E+004  0.3598280E+02  0.7546771E-02  0.1540042E+00
         21   -1    0    0  503  502  0.00000000000E+00  0.00000000000E+00  0.27416762579E+01  0.27416762579E+01  0.00000000000E+00 0.  1.
         21   -1    0    0  501  503 -0.00000000000E+00 -0.00000000000E+00 -0.47767625276E+03  0.47767625276E+03  0.00000000000E+00 0.  1.
          2    1    1    2  501    0 -0.31793778116E+02  0.16849850010E+02 -0.26306476010E+03  0.26551427415E+03  0.00000000000E+00 0.  1.
         -2    1    1    2    0  502  0.31793778116E+02 -0.16849850010E+02 -0.21186981640E+03  0.21490365486E+03  0.00000000000E+00 0. -1.
<mgrwt>
<rscale>  2 0.35982798E+02</rscale>
<asrwt>0</asrwt>
<pdfrwt beam="1">  1       21 0.42179632E-03 0.35982798E+02</pdfrwt>
<pdfrwt beam="2">  1       21 0.73488659E-01 0.35982798E+02</pdfrwt>
<totfact> 0.20619000E+07</totfact>
</mgrwt>
</event>
<event>
 4    1  0.7499963E+004  0.2052154E+02  0.7546771E-02  0.1735151E+00
         21   -1    0    0  503  502  0.00000000000E+00  0.00000000000E+00  0.83584414110E+01  0.83584414110E+01  0.00000000000E+00 0. -1.
         21   -1    0    0  501  503 -0.00000000000E+00 -0.00000000000E+00 -0.52593937117E+02  0.52593937117E+02  0.00000000000E+00 0. -1.
          2    1    1    2  501    0  0.12337165588E+02 -0.16399023143E+02 -0.28364588241E+02  0.35009762651E+02  0.00000000000E+00 0. -1.
         -2    1    1    2    0  502 -0.12337165588E+02  0.16399023143E+02 -0.15870907465E+02  0.25942615877E+02  0.00000000000E+00 0.  1.
<mgrwt>
<rscale>  2 0.20521540E+02</rscale>
<asrwt>0</asrwt>
<pdfrwt beam="1">  1       21 0.12859141E-02 0.20521540E+02</pdfrwt>
<pdfrwt beam="2">  1       21 0.80913748E-02 0.20521540E+02</pdfrwt>
<totfact> 0.18671104E+08</totfact>
</mgrwt>
</event>
<event>
 4    1  0.7499963E+004  0.2135745E+02  0.7546771E-02  0.1719607E+00
         21   -1    0    0  501  502  0.00000000000E+00  0.00000000000E+00  0.16289547126E+02  0.16289547126E+02  0.00000000000E+00 0. -1.
         21   -1    0    0  502  503 -0.00000000000E+00 -0.00000000000E+00 -0.31015631452E+02  0.31015631452E+02  0.00000000000E+00 0. -1.
          1    1    1    2  501    0  0.14802560721E+02  0.15395618690E+02  0.97011061922E-02  0.21357457078E+02  0.00000000000E+00 0.  1.
         -1    1    1    2    0  503 -0.14802560721E+02 -0.15395618690E+02 -0.14735785433E+02  0.25947721500E+02  0.00000000000E+00 0. -1.
<mgrwt>
<rscale>  2 0.21357455E+02</rscale>
<asrwt>0</asrwt>
<pdfrwt beam="1">  1       21 0.25060842E-02 0.21357455E+02</pdfrwt>
<pdfrwt beam="2">  1       21 0.47716356E-02 0.21357455E+02</pdfrwt>
<totfact> 0.15952289E+08</totfact>
</mgrwt>
</event>
<event>
 4    1  0.7499963E+004  0.3797704E+02  0.7546771E-02  0.1523649E+00
         21   -1    0    0  501  502  0.00000000000E+00  0.00000000000E+00  0.82653571194E+00  0.82653571194E+00  0.00000000000E+00 0.  1.
         21   -1    0    0  502  503 -0.00000000000E+00 -0.00000000000E+00 -0.17457216531E+04  0.17457216531E+04  0.00000000000E+00 0.  1.
          4    1    1    2  501    0  0.14014171803E+00 -0.37976780924E+02 -0.89092185729E+03  0.89173090747E+03  0.00000000000E+00 0.  1.
         -4    1    1    2    0  503 -0.14014171803E+00  0.37976780924E+02 -0.85397326011E+03  0.85481728136E+03  0.00000000000E+00 0. -1.
<mgrwt>
<rscale>  2 0.37977039E+02</rscale>
<asrwt>0</asrwt>
<pdfrwt beam="1">  1       21 0.12716056E-03 0.37977039E+02</pdfrwt>
<pdfrwt beam="2">  1       21 0.26856998E+00 0.37977039E+02</pdfrwt>
<totfact> 0.49432591E+06</totfact>
</mgrwt>
</event>
<event>
 4    1  0.7499963E+004  0.2165255E+02  0.7546771E-02  0.1714331E+00
         21   -1    0    0  501  502  0.00000000000E+00  0.00000000000E+00  0.55974645826E+02  0.55974645826E+02  0.00000000000E+00 0. -1.
         21   -1    0    0  502  503 -0.00000000000E+00 -0.00000000000E+00 -0.85780047667E+01  0.85780047667E+01  0.00000000000E+00 0. -1.
          5    1    1    2  501    0  0.12133689934E+02  0.17933387857E+02  0.18742916179E+02  0.28637907367E+02  0.00000000000E+00 0. -1.
         -5    1    1    2    0  503 -0.12133689934E+02 -0.17933387857E+02  0.28653724881E+02  0.35914743226E+02  0.00000000000E+00 0.  1.
<mgrwt>
<rscale>  2 0.21652548E+02</rscale>
<asrwt>0</asrwt>
<pdfrwt beam="1">  1       21 0.86114837E-02 0.21652548E+02</pdfrwt>
<pdfrwt beam="2">  1       21 0.13196931E-02 0.21652548E+02</pdfrwt>
<totfact> 0.16495869E+08</totfact>
</mgrwt>
</event>
<event>
 4    1  0.7499963E+004  0.2907848E+02  0.7546771E-02  0.1608504E+00
         21   -1    0    0  503  502  0.00000000000E+00  0.00000000000E+00  0.29073820911E+03  0.29073820911E+03  0.00000000000E+00 0. -1.
         21   -1    0    0  501  503 -0.00000000000E+00 -0.00000000000E+00 -0.36299418623E+01  0.36299418623E+01  0.00000000000E+00 0. -1.
          5    1    1    2  501    0 -0.25270969028E+02 -0.14385266890E+02  0.20917891488E+03  0.21119037906E+03  0.00000000000E+00 0. -1.
         -5    1    1    2    0  502  0.25270969028E+02  0.14385266890E+02  0.77929352374E+02  0.83177771914E+02  0.00000000000E+00 0.  1.
<mgrwt>
<rscale>  2 0.29078476E+02</rscale>
<asrwt>0</asrwt>
<pdfrwt beam="1">  1       21 0.44728937E-01 0.29078476E+02</pdfrwt>
<pdfrwt beam="2">  1       21 0.55845282E-03 0.29078476E+02</pdfrwt>
<totfact> 0.35578320E+07</totfact>
</mgrwt>
</event>
<event>
 4    1  0.7499963E+004  0.2601165E+02  0.7546771E-02  0.1646882E+00
         21   -1    0    0  501  502  0.00000000000E+00  0.00000000000E+00  0.54029118812E+01  0.54029118812E+01  0.00000000000E+00 0.  1.
         21   -1    0    0  502  503 -0.00000000000E+00 -0.00000000000E+00 -0.16013931213E+03  0.16013931213E+03  0.00000000000E+00 0.  1.
          5    1    1    2  501    0  0.24870307377E+02  0.76206203073E+01 -0.38722501675E+02  0.46648024383E+02  0.00000000000E+00 0. -1.
         -5    1    1    2    0  503 -0.24870307377E+02 -0.76206203073E+01 -0.11601389857E+03  0.11889419962E+03  0.00000000000E+00 0.  1.
<mgrwt>
<rscale>  2 0.26011652E+02</rscale>
<asrwt>0</asrwt>
<pdfrwt beam="1">  1       21 0.83121735E-03 0.26011652E+02</pdfrwt>
<pdfrwt beam="2">  1       21 0.24636813E-01 0.26011652E+02</pdfrwt>
<totfact> 0.57972013E+07</totfact>
</mgrwt>
</event>
<event>
 4    1  0.7499963E+004  0.2207981E+02  0.7546771E-02  0.1706875E+00
         21   -1    0    0  501  502  0.00000000000E+00  0.00000000000E+00  0.61729597795E+02  0.61729597795E+02  0.00000000000E+00 0. -1.
         21   -1    0    0  502  503 -0.00000000000E+00 -0.00000000000E+00 -0.86587683619E+01  0.86587683619E+01  0.00000000000E+00 0. -1.
          2    1    1    2  501    0 -0.22075735097E+02  0.42394891936E+00  0.16100874997E+02  0.27326836414E+02  0.00000000000E+00 0.  1.
         -2    1    1    2    0  503  0.22075735097E+02 -0.42394891936E+00  0.36969954436E+02  0.43061529742E+02  0.00000000000E+00 0. -1.
<mgrwt>
<rscale>  2 0.22079806E+02</rscale>
<asrwt>0</asrwt>
<pdfrwt beam="1">  1       21 0.94968609E-02 0.22079806E+02</pdfrwt>
<pdfrwt beam="2">  1       21 0.13321182E-02 0.22079806E+02</pdfrwt>
<totfact> 0.13934463E+08</totfact>
</mgrwt>
</event>
<event>
 4    1  0.7499963E+004  0.2214661E+02  0.7546771E-02  0.1705729E+00
         21   -1    0    0  501  502  0.00000000000E+00  0.00000000000E+00  0.89596385492E+00  0.89596385492E+00  0.00000000000E+00 0.  1.
         21   -1    0    0  502  503 -0.00000000000E+00 -0.00000000000E+00 -0.54780357035E+03  0.54780357035E+03  0.00000000000E+00 0.  1.
          5    1    1    2  501    0 -0.18997063231E+02  0.11383489150E+02 -0.28067421729E+03  0.28154660092E+03  0.00000000000E+00 0. -1.
         -5    1    1    2    0  503  0.18997063231E+02 -0.11383489150E+02 -0.26623338920E+03  0.26715293328E+03  0.00000000000E+00 0.  1.
<mgrwt>
<rscale>  2 0.22146608E+02</rscale>
<asrwt>0</asrwt>
<pdfrwt beam="1">  1       21 0.13784061E-03 0.22146608E+02</pdfrwt>
<pdfrwt beam="2">  1       21 0.84277459E-01 0.22146608E+02</pdfrwt>
<totfact> 0.71962219E+07</totfact>
</mgrwt>
</event>
<event>
 4    1  0.7499963E+004  0.2551328E+02  0.7546771E-02  0.1653737E+00
         21   -1    0    0  501  502  0.00000000000E+00  0.00000000000E+00  0.64346745278E+02  0.64346745278E+02  0.00000000000E+00 0. -1.
         21   -1    0    0  502  503 -0.00000000000E+00 -0.00000000000E+00 -0.10192546311E+02  0.10192546311E+02  0.00000000000E+00 0. -1.
          2    1    1    2  501    0 -0.23585543222E+02  0.97288130584E+01  0.23845977731E+02  0.34922174997E+02  0.00000000000E+00 0.  1.
         -2    1    1    2    0  503  0.23585543222E+02 -0.97288130584E+01  0.30308221236E+02  0.39617116592E+02  0.00000000000E+00 0. -1.
<mgrwt>
<rscale>  2 0.25513284E+02</rscale>
<asrwt>0</asrwt>
<pdfrwt beam="1">  1       21 0.98994989E-02 0.25513284E+02</pdfrwt>
<pdfrwt beam="2">  1       21 0.15680841E-02 0.25513284E+02</pdfrwt>
<totfact> 0.10581016E+08</totfact>
</mgrwt>
</event>
<event>
 4    1  0.7499963E+004  0.2033254E+02  0.7546771E-02  0.1738795E+00
         21   -1    0    0  501  502  0.00000000000E+00  0.00000000000E+00  0.14079169248E+04  0.14079169248E+04  0.00000000000E+00 0.  1.
         21   -1    0    0  502  503 -0.00000000000E+00 -0.00000000000E+00 -0.29443520513E+00  0.29443520513E+00  0.00000000000E+00 0.  1.
          5    1    1    2  501    0  0.66840250199E+01 -0.19202504643E+02  0.66708333457E+03  0.66739312825E+03  0.00000000000E+00 0.  1.
         -5    1    1    2    0  503 -0.66840250199E+01  0.19202504643E+02  0.74053915506E+03  0.74081823179E+03  0.00000000000E+00 0. -1.
<mgrwt>
<rscale>  2 0.20332545E+02</rscale>
<asrwt>0</asrwt>
<pdfrwt beam="1">  1       21 0.21659721E+00 0.20332545E+02</pdfrwt>
<pdfrwt beam="2">  1       21 0.45298851E-04 0.20332545E+02</pdfrwt>
<totfact> 0.37942311E+07</totfact>
</mgrwt>
</event>
<event>
 4    1  0.7499963E+004  0.3047976E+02  0.7546771E-02  0.1592845E+00
         21   -1    0    0  501  502  0.00000000000E+00  0.00000000000E+00  0.40468982089E+00  0.40468982089E+00  0.00000000000E+00 0. -1.
         21   -1    0    0  502  503 -0.00000000000E+00 -0.00000000000E+00 -0.28017843142E+04  0.28017843142E+04  0.00000000000E+00 0. -1.
          2    1    1    2  501    0 -0.72629511622E+01  0.29601774749E+02 -0.80517266583E+03  0.80574936384E+03  0.00000000000E+00 0.  1.
         -2    1    1    2    0  503  0.72629511622E+01 -0.29601774749E+02 -0.19962069585E+04  0.19964396401E+04  0.00000000000E+00 0. -1.
<mgrwt>
<rscale>  2 0.30479756E+02</rscale>
<asrwt>0</asrwt>
<pdfrwt beam="1">  1       21 0.62259423E-04 0.30479756E+02</pdfrwt>
<pdfrwt beam="2">  1       21 0.43104755E+00 0.30479756E+02</pdfrwt>
<totfact> 0.19200376E+06</totfact>
</mgrwt>
</event>
<event>
 4    1  0.7499963E+004  0.2211903E+02  0.7546771E-02  0.1706201E+00
         21   -1    0    0  503  502  0.00000000000E+00  0.00000000000E+00  0.78117101515E+00  0.78117101515E+00  0.00000000000E+00 0.  1.
         21   -1    0    0  501  503 -0.00000000000E+00 -0.00000000000E+00 -0.64527727641E+03  0.64527727641E+03  0.00000000000E+00 0.  1.
          3    1    1    2  501    0 -0.34022935524E+01  0.21855801966E+02 -0.26685912560E+03  0.26777424185E+03  0.00000000000E+00 0. -1.
         -3    1    1    2    0  502  0.34022935524E+01 -0.21855801966E+02 -0.37763697979E+03  0.37828420557E+03  0.00000000000E+00 0.  1.
<mgrwt>
<rscale>  2 0.22119034E+02</rscale>
<asrwt>0</asrwt>
<pdfrwt beam="1">  1       21 0.12018028E-03 0.22119034E+02</pdfrwt>
<pdfrwt beam="2">  1       21 0.99273327E-01 0.22119034E+02</pdfrwt>
<totfact> 0.61591725E+07</totfact>
</mgrwt>
</event>
<event>
 4    1  0.7499963E+004  0.4152884E+02  0.7546771E-02  0.1497253E+00
         21   -1    0    0  503  502  0.00000000000E+00  0.00000000000E+00  0.55019423857E+01  0.55019423857E+01  0.00000000000E+00 0. -1.
         21   -1    0    0  501  503 -0.00000000000E+00 -0.00000000000E+00 -0.35930528824E+03  0.35930528824E+03  0.00000000000E+00 0. -1.
          5    1    1    2  501    0 -0.21114678032E+01 -0.41475128558E+02 -0.24205611986E+03  0.24559277218E+03  0.00000000000E+00 0.  1.
         -5    1    1    2    0  502  0.21114678032E+01  0.41475128558E+02 -0.11174722599E+03  0.11921445845E+03  0.00000000000E+00 0. -1.
<mgrwt>
<rscale>  2 0.41528840E+02</rscale>
<asrwt>0</asrwt>
<pdfrwt beam="1">  1       21 0.84645271E-03 0.41528840E+02</pdfrwt>
<pdfrwt beam="2">  1       21 0.55277735E-01 0.41528840E+02</pdfrwt>
<totfact> 0.13254644E+07</totfact>
</mgrwt>
</event>
<event>
 4    1  0.7499963E+004  0.2317126E+02  0.7546771E-02  0.1688749E+00
         21   -1    0    0  501  502  0.00000000000E+00  0.00000000000E+00  0.12028012217E+03  0.12028012217E+03  0.00000000000E+00 0. -1.
         21   -1    0    0  502  503 -0.00000000000E+00 -0.00000000000E+00 -0.44876638269E+01  0.44876638269E+01  0.00000000000E+00 0. -1.
          5    1    1    2  501    0 -0.80415135174E+01  0.21731113297E+02  0.53347703385E+02  0.58162571137E+02  0.00000000000E+00 0. -1.
         -5    1    1    2    0  503  0.80415135174E+01 -0.21731113297E+02  0.62444754957E+02  0.66605214859E+02  0.00000000000E+00 0.  1.
<mgrwt>
<rscale>  2 0.23171259E+02</rscale>
<asrwt>0</asrwt>
<pdfrwt beam="1">  1       21 0.18504632E-01 0.23171259E+02</pdfrwt>
<pdfrwt beam="2">  1       21 0.69040991E-03 0.23171259E+02</pdfrwt>
<totfact> 0.12290732E+08</totfact>
</mgrwt>
</event>
<event>
 4    1  0.7499963E+004  0.2297251E+02  0.7546771E-02  0.1691956E+00
         21   -1    0    0  501  502  0.00000000000E+00  0.00000000000E+00  0.76632233609E+03  0.76632233609E+03  0.00000000000E+00 0.  1.
         21   -1    0    0  502  503 -0.00000000000E+00 -0.00000000000E+00 -0.77280607595E+00  0.77280607595E+00  0.00000000000E+00 0.  1.
          5    1    1    2  501    0  0.16643707041E+02  0.15834248924E+02  0.25621433752E+03  0.25724214891E+03  0.00000000000E+00 0.  1.
         -5    1    1    2    0  503 -0.16643707041E+02 -0.15834248924E+02  0.50933519249E+03  0.50985299325E+03  0.00000000000E+00 0. -1.
<mgrwt>
<rscale>  2 0.22972515E+02</rscale>
<asrwt>0</asrwt>
<pdfrwt beam="1">  1       21 0.11789514E+00 0.22972515E+02</pdfrwt>
<pdfrwt beam="2">  1       21 0.11889386E-03 0.22972515E+02</pdfrwt>
<totfact> 0.43072588E+07</totfact>
</mgrwt>
</event>
<event>
 4    1  0.7499963E+004  0.3993452E+02  0.7546771E-02  0.1508694E+00
         21   -1    0    0  501  502  0.00000000000E+00  0.00000000000E+00  0.94036258380E+02  0.94036258380E+02  0.00000000000E+00 0.  1.
         21   -1    0    0  502  503 -0.00000000000E+00 -0.00000000000E+00 -0.17257927196E+02  0.17257927196E+02  0.00000000000E+00 0.  1.
          5    1    1    2  501    0  0.26428201659E+02 -0.29938538594E+02  0.31066115307E+02  0.50595152499E+02  0.00000000000E+00 0. -1.
         -5    1    1    2    0  503 -0.26428201659E+02  0.29938538594E+02  0.45712215877E+02  0.60699033077E+02  0.00000000000E+00 0.  1.
<mgrwt>
<rscale>  2 0.39934521E+02</rscale>
<asrwt>0</asrwt>
<pdfrwt beam="1">  1       21 0.14467116E-01 0.39934521E+02</pdfrwt>
<pdfrwt beam="2">  1       21 0.26550658E-02 0.39934521E+02</pdfrwt>
<totfact> 0.27026600E+07</totfact>
</mgrwt>
</event>
<event>
 4    1  0.7499963E+004  0.2610572E+02  0.7546771E-02  0.1645610E+00
         21   -1    0    0  503  502  0.00000000000E+00  0.00000000000E+00  0.93690131679E+00  0.93690131679E+00  0.00000000000E+00 0.  1.
         21   -1    0    0  501  503 -0.00000000000E+00 -0.00000000000E+00 -0.74719194928E+03  0.74719194928E+03  0.00000000000E+00 0.  1.
          3    1    1    2  501    0 -0.78511261883E+01  0.24897157630E+02 -0.31225840268E+03  0.31334775998E+03  0.00000000000E+00 0. -1.
         -3    1    1    2    0  502  0.78511261883E+01 -0.24897157630E+02 -0.43399664528E+03  0.43478109061E+03  0.00000000000E+00 0.  1.
<mgrwt>
<rscale>  2 0.26105720E+02</rscale>
<asrwt>0</asrwt>
<pdfrwt beam="1">  1       21 0.14413886E-03 0.26105720E+02</pdfrwt>
<pdfrwt beam="2">  1       21 0.11495245E+00 0.26105720E+02</pdfrwt>
<totfact> 0.35474442E+07</totfact>
</mgrwt>
</event>
<event>
 4    1  0.7499963E+004  0.3441322E+02  0.7546771E-02  0.1553874E+00
         21   -1    0    0  503  502  0.00000000000E+00  0.00000000000E+00  0.58638721902E+01  0.58638721902E+01  0.00000000000E+00 0.  1.
         21   -1    0    0  501  503 -0.00000000000E+00 -0.00000000000E+00 -0.54421909810E+03  0.54421909810E+03  0.00000000000E+00 0.  1.
          5    1    1    2  501    0  0.45237426908E+00  0.34410243328E+02 -0.51061065462E+02  0.61575172712E+02  0.00000000000E+00 0. -1.
         -5    1    1    2    0  502 -0.45237426908E+00 -0.34410243328E+02 -0.48729416045E+03  0.48850779758E+03  0.00000000000E+00 0.  1.
<mgrwt>
<rscale>  2 0.34413217E+02</rscale>
<asrwt>0</asrwt>
<pdfrwt beam="1">  1       21 0.90213454E-03 0.34413217E+02</pdfrwt>
<pdfrwt beam="2">  1       21 0.83725982E-01 0.34413217E+02</pdfrwt>
<totfact> 0.49529454E+06</totfact>
</mgrwt>
</event>
<event>
 4    1  0.7499963E+004  0.2109307E+02  0.7546771E-02  0.1724426E+00
         21   -1    0    0  501  502  0.00000000000E+00  0.00000000000E+00  0.32354786553E+02  0.32354786553E+02  0.00000000000E+00 0. -1.
         21   -1    0    0  502  503 -0.00000000000E+00 -0.00000000000E+00 -0.13817519738E+02  0.13817519738E+02  0.00000000000E+00 0. -1.
          1    1    1    2  501    0  0.20830773543E+02  0.33160992283E+01  0.10867850258E+02  0.23728207048E+02  0.00000000000E+00 0. -1.
         -1    1    1    2    0  503 -0.20830773543E+02 -0.33160992283E+01  0.76694165573E+01  0.22444099243E+02  0.00000000000E+00 0.  1.
<mgrwt>
<rscale>  2 0.21093071E+02</rscale>
<asrwt>0</asrwt>
<pdfrwt beam="1">  1       21 0.49776594E-02 0.21093071E+02</pdfrwt>
<pdfrwt beam="2">  1       21 0.21257723E-02 0.21093071E+02</pdfrwt>
<totfact> 0.19138733E+08</totfact>
</mgrwt>
</event>
<event>
 4    1  0.7499963E+004  0.2275015E+02  0.7546771E-02  0.1695592E+00
         21   -1    0    0  503  502  0.00000000000E+00  0.00000000000E+00  0.12725951075E+03  0.12725951075E+03  0.00000000000E+00 0.  1.
         21   -1    0    0  501  503 -0.00000000000E+00 -0.00000000000E+00 -0.47252345132E+01  0.47252345132E+01  0.00000000000E+00 0.  1.
          2    1    1    2  501    0  0.17344618871E+02  0.14721872201E+02  0.36637405601E+02  0.43126196378E+02  0.00000000000E+00 0.  1.
         -2    1    1    2    0  502 -0.17344618871E+02 -0.14721872201E+02  0.85896870635E+02  0.88858548884E+02  0.00000000000E+00 0. -1.
<mgrwt>
<rscale>  2 0.22750150E+02</rscale>
<asrwt>0</asrwt>
<pdfrwt beam="1">  1       21 0.19578384E-01 0.22750150E+02</pdfrwt>
<pdfrwt beam="2">  1       21 0.72695925E-03 0.22750150E+02</pdfrwt>
<totfact> 0.10267247E+08</totfact>
</mgrwt>
</event>
<event>
 4    1  0.7499963E+004  0.3266289E+02  0.7546771E-02  0.1570391E+00
         21   -1    0    0  503  502  0.00000000000E+00  0.00000000000E+00  0.17775377997E+03  0.17775377997E+03  0.00000000000E+00 0. -1.
         21   -1    0    0  501  503 -0.00000000000E+00 -0.00000000000E+00 -0.62304467282E+01  0.62304467282E+01  0.00000000000E+00 0. -1.
          1    1    1    2  501    0 -0.29141353530E+02  0.14752835708E+02  0.10337963674E+03  0.10841685266E+03  0.00000000000E+00 0. -1.
         -1    1    1    2    0  502  0.29141353530E+02 -0.14752835708E+02  0.68143696504E+02  0.75567374046E+02  0.00000000000E+00 0.  1.
<mgrwt>
<rscale>  2 0.32662894E+02</rscale>
<asrwt>0</asrwt>
<pdfrwt beam="1">  1       21 0.27346731E-01 0.32662894E+02</pdfrwt>
<pdfrwt beam="2">  1       21 0.95853040E-03 0.32662894E+02</pdfrwt>
<totfact> 0.40655502E+07</totfact>
</mgrwt>
</event>
<event>
 4    1  0.7499963E+004  0.2693261E+02  0.7546771E-02  0.1634700E+00
         21   -1    0    0  501  502  0.00000000000E+00  0.00000000000E+00  0.28703554669E+02  0.28703554669E+02  0.00000000000E+00 0.  1.
         21   -1    0    0  502  503 -0.00000000000E+00 -0.00000000000E+00 -0.27809233477E+02  0.27809233477E+02  0.00000000000E+00 0.  1.
          5    1    1    2  501    0  0.20560176408E+02  0.17396687028E+02 -0.80896145980E+01  0.28121298651E+02  0.00000000000E+00 0. -1.
         -5    1    1    2    0  503 -0.20560176408E+02 -0.17396687028E+02  0.89839357895E+01  0.28391489495E+02  0.00000000000E+00 0.  1.
<mgrwt>
<rscale>  2 0.26932612E+02</rscale>
<asrwt>0</asrwt>
<pdfrwt beam="1">  1       21 0.44159315E-02 0.26932612E+02</pdfrwt>
<pdfrwt beam="2">  1       21 0.42783436E-02 0.26932612E+02</pdfrwt>
<totfact> 0.83426590E+07</totfact>
</mgrwt>
</event>
<event>
 4    1  0.7499963E+004  0.2734457E+02  0.7546771E-02  0.1629443E+00
         21   -1    0    0  503  502  0.00000000000E+00  0.00000000000E+00  0.42653510290E+03  0.42653510290E+03  0.00000000000E+00 0.  1.
         21   -1    0    0  501  503 -0.00000000000E+00 -0.00000000000E+00 -0.20983270255E+01  0.20983270255E+01  0.00000000000E+00 0.  1.
          1    1    1    2  501    0  0.25053592828E+02  0.10956420821E+02  0.29915856798E+03  0.30040568315E+03  0.00000000000E+00 0.  1.
         -1    1    1    2    0  502 -0.25053592828E+02 -0.10956420821E+02  0.12527820789E+03  0.12822774678E+03  0.00000000000E+00 0. -1.
<mgrwt>
<rscale>  2 0.27344573E+02</rscale>
<asrwt>0</asrwt>
<pdfrwt beam="1">  1       21 0.65620716E-01 0.27344573E+02</pdfrwt>
<pdfrwt beam="2">  1       21 0.32281988E-03 0.27344573E+02</pdfrwt>
<totfact> 0.36931819E+07</totfact>
</mgrwt>
</event>
<event>
 4    1  0.7499963E+004  0.3267247E+02  0.7546771E-02  0.1570297E+00
         21   -1    0    0  501  502  0.00000000000E+00  0.00000000000E+00  0.24352344622E+02  0.24352344622E+02  0.00000000000E+00 0. -1.
         21   -1    0    0  502  503 -0.00000000000E+00 -0.00000000000E+00 -0.44402502481E+02  0.44402502481E+02  0.00000000000E+00 0. -1.
          5    1    1    2  501    0  0.30657097158E+02  0.11297472723E+02 -0.61393945119E+01  0.33244287646E+02  0.00000000000E+00 0. -1.
         -5    1    1    2    0  503 -0.30657097158E+02 -0.11297472723E+02 -0.13910763347E+02  0.35510559458E+02  0.00000000000E+00 0.  1.
<mgrwt>
<rscale>  2 0.32672473E+02</rscale>
<asrwt>0</asrwt>
<pdfrwt beam="1">  1       21 0.37465146E-02 0.32672473E+02</pdfrwt>
<pdfrwt beam="2">  1       21 0.68311541E-02 0.32672473E+02</pdfrwt>
<totfact> 0.53297427E+07</totfact>
</mgrwt>
</event>
<event>
 4    1  0.7499963E+004  0.2120250E+02  0.7546771E-02  0.1722421E+00
         21   -1    0    0  501  502  0.00000000000E+00  0.00000000000E+00  0.46286501501E+02  0.46286501501E+02  0.00000000000E+00 0.  1.
         21   -1    0    0  502  503 -0.00000000000E+00 -0.00000000000E+00 -0.10150529002E+02  0.10150529002E+02  0.00000000000E+00 0.  1.
          5    1    1    2  501    0 -0.16945455910E+02  0.12743526881E+02  0.12204357759E+02  0.24464102307E+02  0.00000000000E+00 0.  1.
         -5    1    1    2    0  503  0.16945455910E+02 -0.12743526881E+02  0.23931614740E+02  0.31972928196E+02  0.00000000000E+00 0. -1.
<mgrwt>
<rscale>  2 0.21202499E+02</rscale>
<asrwt>0</asrwt>
<pdfrwt beam="1">  1       21 0.71210001E-02 0.21202499E+02</pdfrwt>
<pdfrwt beam="2">  1       21 0.15616199E-02 0.21202499E+02</pdfrwt>
<totfact> 0.17297152E+08</totfact>
</mgrwt>
</event>
<event>
 4    1  0.7499963E+004  0.2011431E+02  0.7546771E-02  0.1743064E+00
         21   -1    0    0  503  502  0.00000000000E+00  0.00000000000E+00  0.63224123353E+03  0.63224123353E+03  0.00000000000E+00 0. -1.
         21   -1    0    0  501  503 -0.00000000000E+00 -0.00000000000E+00 -0.71615940660E+00  0.71615940660E+00  0.00000000000E+00 0. -1.
          3    1    1    2  501    0 -0.54696227294E+01 -0.19356360201E+02  0.21250494736E+03  0.21345476829E+03  0.00000000000E+00 0. -1.
         -3    1    1    2    0  502  0.54696227294E+01  0.19356360201E+02  0.41902012676E+03  0.41950262464E+03  0.00000000000E+00 0.  1.
<mgrwt>
<rscale>  2 0.20114310E+02</rscale>
<asrwt>0</asrwt>
<pdfrwt beam="1">  1       21 0.97267435E-01 0.20114310E+02</pdfrwt>
<pdfrwt beam="2">  1       21 0.11017888E-03 0.20114310E+02</pdfrwt>
<totfact> 0.71216707E+07</totfact>
</mgrwt>
</event>
<event>
 4    1  0.7499963E+004  0.2475975E+02  0.7546771E-02  0.1664477E+00
         21   -1    0    0  503  502  0.00000000000E+00  0.00000000000E+00  0.10801576355E+01  0.10801576355E+01  0.00000000000E+00 0. -1.
         21   -1    0    0  501  503 -0.00000000000E+00 -0.00000000000E+00 -0.56933985401E+03  0.56933985401E+03  0.00000000000E+00 0. -1.
          4    1    1    2  501    0 -0.16691318306E+02 -0.18287847284E+02 -0.26814667062E+03  0.26928736032E+03  0.00000000000E+00 0.  1.
         -4    1    1    2    0  502  0.16691318306E+02  0.18287847284E+02 -0.30011302576E+03  0.30113265133E+03  0.00000000000E+00 0. -1.
<mgrwt>
<rscale>  2 0.24759755E+02</rscale>
<asrwt>0</asrwt>
<pdfrwt beam="1">  1       21 0.16617787E-03 0.24759755E+02</pdfrwt>
<pdfrwt beam="2">  1       21 0.87590868E-01 0.24759755E+02</pdfrwt>
<totfact> 0.51988156E+07</totfact>
</mgrwt>
</event>
<event>
 4    1  0.7499963E+004  0.2102973E+02  0.7546771E-02  0.1725593E+00
         21   -1    0    0  503  502  0.00000000000E+00  0.00000000000E+00  0.48389763247E+02  0.48389763247E+02  0.00000000000E+00 0.  1.
         21   -1    0    0  501  503 -0.00000000000E+00 -0.00000000000E+00 -0.91512478807E+01  0.91512478807E+01  0.00000000000E+00 0.  1.
          4    1    1    2  501    0  0.18509588564E+02 -0.99822232496E+01  0.18580667327E+02  0.28062267338E+02  0.00000000000E+00 0.  1.
         -4    1    1    2    0  502 -0.18509588564E+02  0.99822232496E+01  0.20657848040E+02  0.29478743790E+02  0.00000000000E+00 0. -1.
<mgrwt>
<rscale>  2 0.21029733E+02</rscale>
<asrwt>0</asrwt>
<pdfrwt beam="1">  1       21 0.74445789E-02 0.21029733E+02</pdfrwt>
<pdfrwt beam="2">  1       21 0.14078843E-02 0.21029733E+02</pdfrwt>
<totfact> 0.18785468E+08</totfact>
</mgrwt>
</event>
<event>
 4    1  0.7499963E+004  0.2654073E+02  0.7546771E-02  0.1639810E+00
         21   -1    0    0  503  502  0.00000000000E+00  0.00000000000E+00  0.39282353697E+01  0.39282353697E+01  0.00000000000E+00 0. -1.
         21   -1    0    0  501  503 -0.00000000000E+00 -0.00000000000E+00 -0.18109225512E+03  0.18109225512E+03  0.00000000000E+00 0. -1.
          4    1    1    2  501    0 -0.65530530122E+01 -0.25719012550E+02 -0.97734430119E+02  0.10127402896E+03  0.00000000000E+00 0. -1.
         -4    1    1    2    0  502  0.65530530122E+01  0.25719012550E+02 -0.79429589627E+02  0.83746461529E+02  0.00000000000E+00 0.  1.
<mgrwt>
<rscale>  2 0.26540726E+02</rscale>
<asrwt>0</asrwt>
<pdfrwt beam="1">  1       21 0.60434400E-03 0.26540726E+02</pdfrwt>
<pdfrwt beam="2">  1       21 0.27860343E-01 0.26540726E+02</pdfrwt>
<totfact> 0.75158288E+07</totfact>
</mgrwt>
</event>
<event>
 4    1  0.7499963E+004  0.2026410E+02  0.7546771E-02  0.1740127E+00
         21   -1    0    0  503  502  0.00000000000E+00  0.00000000000E+00  0.77743069805E+01  0.77743069805E+01  0.00000000000E+00 0. -1.
         21   -1    0    0  501  503 -0.00000000000E+00 -0.00000000000E+00 -0.61751250272E+02  0.61751250272E+02  0.00000000000E+00 0. -1.
          5    1    1    2  501    0 -0.15868309845E+02 -0.12602799436E+02 -0.40209451184E+02  0.45027033829E+02  0.00000000000E+00 0. -1.
         -5    1    1    2    0  502  0.15868309845E+02  0.12602799436E+02 -0.13767492108E+02  0.24498523423E+02  0.00000000000E+00 0.  1.
<mgrwt>
<rscale>  2 0.20264102E+02</rscale>
<asrwt>0</asrwt>
<pdfrwt beam="1">  1       21 0.11960472E-02 0.20264102E+02</pdfrwt>
<pdfrwt beam="2">  1       21 0.95001925E-02 0.20264102E+02</pdfrwt>
<totfact> 0.15958734E+08</totfact>
</mgrwt>
</event>
<event>
 4    1  0.7499963E+004  0.2848033E+02  0.7546771E-02  0.1615521E+00
         21   -1    0    0  501  502  0.00000000000E+00  0.00000000000E+00  0.47451643574E+03  0.47451643574E+03  0.00000000000E+00 0. -1.
         21   -1    0    0  502  503 -0.00000000000E+00 -0.00000000000E+00 -0.21018856617E+01  0.21018856617E+01  0.00000000000E+00 0. -1.
          3    1    1    2  501    0 -0.24021094363E+02  0.15300861960E+02  0.13322591196E+03  0.13623609275E+03  0.00000000000E+00 0. -1.
         -3    1    1    2    0  503  0.24021094363E+02 -0.15300861960E+02  0.33918863812E+03  0.34038222865E+03  0.00000000000E+00 0.  1.
<mgrwt>
<rscale>  2 0.28480333E+02</rscale>
<asrwt>0</asrwt>
<pdfrwt beam="1">  1       21 0.73002444E-01 0.28480333E+02</pdfrwt>
<pdfrwt beam="2">  1       21 0.32336740E-03 0.28480333E+02</pdfrwt>
<totfact> 0.29797376E+07</totfact>
</mgrwt>
</event>
<event>
 4    1  0.7499963E+004  0.2221773E+02  0.7546771E-02  0.1704513E+00
         21   -1    0    0  503  502  0.00000000000E+00  0.00000000000E+00  0.36161839992E+01  0.36161839992E+01  0.00000000000E+00 0. -1.
         21   -1    0    0  501  503 -0.00000000000E+00 -0.00000000000E+00 -0.17555557765E+03  0.17555557765E+03  0.00000000000E+00 0. -1.
          3    1    1    2  501    0 -0.16110798402E+02 -0.15299343127E+02 -0.12822149247E+03  0.13013215919E+03  0.00000000000E+00 0.  1.
         -3    1    1    2    0  502  0.16110798402E+02  0.15299343127E+02 -0.43717901180E+02  0.49039602454E+02  0.00000000000E+00 0. -1.
<mgrwt>
<rscale>  2 0.22217734E+02</rscale>
<asrwt>0</asrwt>
<pdfrwt beam="1">  1       21 0.55633585E-03 0.22217734E+02</pdfrwt>
<pdfrwt beam="2">  1       21 0.27008558E-01 0.22217734E+02</pdfrwt>
<totfact> 0.85907236E+07</totfact>
</mgrwt>
</event>
<event>
 4    1  0.7499963E+004  0.3154946E+02  0.7546771E-02  0.1581567E+00
         21   -1    0    0  503  502  0.00000000000E+00  0.00000000000E+00  0.78769800035E+03  0.78769800035E+03  0.00000000000E+00 0. -1.
         21   -1    0    0  501  503 -0.00000000000E+00 -0.00000000000E+00 -0.13831658498E+01  0.13831658498E+01  0.00000000000E+00 0. -1.
          3    1    1    2  501    0 -0.23714687770E+02  0.20808216431E+02  0.27717776146E+03  0.27896752452E+03  0.00000000000E+00 0.  1.
         -3    1    1    2    0  502  0.23714687770E+02 -0.20808216431E+02  0.50913707304E+03  0.51011364168E+03  0.00000000000E+00 0. -1.
<mgrwt>
<rscale>  2 0.31549458E+02</rscale>
<asrwt>0</asrwt>
<pdfrwt beam="1">  1       21 0.12118395E+00 0.31549458E+02</pdfrwt>
<pdfrwt beam="2">  1       21 0.21279538E-03 0.31549458E+02</pdfrwt>
<totfact> 0.18443993E+07</totfact>
</mgrwt>
</event>
<event>
 4    1  0.7499963E+004  0.2491579E+02  0.7546771E-02  0.1662214E+00
         21   -1    0    0  501  502  0.00000000000E+00  0.00000000000E+00  0.33199702344E+00  0.33199702344E+00  0.00000000000E+00 0. -1.
         21   -1    0    0  502  503 -0.00000000000E+00 -0.00000000000E+00 -0.22846612352E+04  0.22846612352E+04  0.00000000000E+00 0. -1.
          5    1    1    2  501    0  0.22173540585E+02  0.11363573806E+02 -0.16289642353E+04  0.16291547736E+04  0.00000000000E+00 0. -1.
         -5    1    1    2    0  503 -0.22173540585E+02 -0.11363573806E+02 -0.65536500287E+03  0.65583845854E+03  0.00000000000E+00 0.  1.
<mgrwt>
<rscale>  2 0.24915792E+02</rscale>
<asrwt>0</asrwt>
<pdfrwt beam="1">  1       21 0.51078575E-04 0.24915792E+02</pdfrwt>
<pdfrwt beam="2">  1       21 0.35147182E+00 0.24915792E+02</pdfrwt>
<totfact> 0.70257977E+06</totfact>
</mgrwt>
</event>
<event>
 4    1  0.7499963E+004  0.2553712E+02  0.7546771E-02  0.1653405E+00
         21   -1    0    0  501  502  0.00000000000E+00  0.00000000000E+00  0.10281966133E+01  0.10281966133E+01  0.00000000000E+00 0. -1.
         21   -1    0    0  502  503 -0.00000000000E+00 -0.00000000000E+00 -0.81197511804E+03  0.81197511804E+03  0.00000000000E+00 0. -1.
          4    1    1    2  501    0 -0.24446859926E+02 -0.73821240313E+01 -0.21529896297E+03  0.21680818289E+03  0.00000000000E+00 0. -1.
         -4    1    1    2    0  503  0.24446859926E+02  0.73821240313E+01 -0.59564795846E+03  0.59619513176E+03  0.00000000000E+00 0.  1.
<mgrwt>
<rscale>  2 0.25537124E+02</rscale>
<asrwt>0</asrwt>
<pdfrwt beam="1">  1       21 0.15818462E-03 0.25537124E+02</pdfrwt>
<pdfrwt beam="2">  1       21 0.12491884E+00 0.25537124E+02</pdfrwt>
<totfact> 0.25571784E+07</totfact>
</mgrwt>
</event>
<event>
 4    1  0.7499963E+004  0.2002724E+02  0.7546771E-02  0.1744787E+00
         21   -1    0    0  501  502  0.00000000000E+00  0.00000000000E+00  0.22931705409E+02  0.22931705409E+02  0.00000000000E+00 0.  1.
         21   -1    0    0  502  503 -0.00000000000E+00 -0.00000000000E+00 -0.22805438541E+02  0.22805438541E+02  0.00000000000E+00 0.  1.
          1    1    1    2  501    0  0.12784148803E+02 -0.15416090455E+02  0.11102980433E+02  0.22899049762E+02  0.00000000000E+00 0. -1.
         -1    1    1    2    0  503 -0.12784148803E+02  0.15416090455E+02 -0.10976713564E+02  0.22838094189E+02  0.00000000000E+00 0.  1.
<mgrwt>
<rscale>  2 0.20027239E+02</rscale>
<asrwt>0</asrwt>
<pdfrwt beam="1">  1       21 0.35279547E-02 0.20027239E+02</pdfrwt>
<pdfrwt beam="2">  1       21 0.35085290E-02 0.20027239E+02</pdfrwt>
<totfact> 0.14911321E+08</totfact>
</mgrwt>
</event>
<event>
 4    1  0.7499963E+004  0.3885783E+02  0.7546771E-02  0.1516789E+00
         21   -1    0    0  501  502  0.00000000000E+00  0.00000000000E+00  0.13918567043E+03  0.13918567043E+03  0.00000000000E+00 0. -1.
         21   -1    0    0  502  503 -0.00000000000E+00 -0.00000000000E+00 -0.10898675735E+02  0.10898675735E+02  0.00000000000E+00 0. -1.
          5    1    1    2  501    0 -0.38690997701E+01  0.38664730258E+02  0.69244131863E+02  0.79402021992E+02  0.00000000000E+00 0.  1.
         -5    1    1    2    0  503  0.38690997701E+01 -0.38664730258E+02  0.59042862833E+02  0.70682324173E+02  0.00000000000E+00 0. -1.
<mgrwt>
<rscale>  2 0.38857834E+02</rscale>
<asrwt>0</asrwt>
<pdfrwt beam="1">  1       21 0.21413179E-01 0.38857834E+02</pdfrwt>
<pdfrwt beam="2">  1       21 0.16767194E-02 0.38857834E+02</pdfrwt>
<totfact> 0.27684469E+07</totfact>
</mgrwt>
</event>
<event>
 4    1  0.7499963E+004  0.2729440E+02  0.7546771E-02  0.1630078E+00
         21   -1    0    0  503  502  0.00000000000E+00  0.00000000000E+00  0.15484898260E+03  0.15484898260E+03  0.00000000000E+00 0. -1.
         21   -1    0    0  501  503 -0.00000000000E+00 -0.00000000000E+00 -0.61902730312E+01  0.61902730312E+01  0.00000000000E+00 0. -1.
          1    1    1    2  501    0 -0.27290641309E+02  0.45299896677E+00  0.36322141759E+02  0.45434373475E+02  0.00000000000E+00 0. -1.
         -1    1    1    2    0  502  0.27290641309E+02 -0.45299896677E+00  0.11233656781E+03  0.11560488216E+03  0.00000000000E+00 0.  1.
<mgrwt>
<rscale>  2 0.27294401E+02</rscale>
<asrwt>0</asrwt>
<pdfrwt beam="1">  1       21 0.23822917E-01 0.27294401E+02</pdfrwt>
<pdfrwt beam="2">  1       21 0.95234981E-03 0.27294401E+02</pdfrwt>
<totfact> 0.50723724E+07</totfact>
</mgrwt>
</event>
<event>
 4    1  0.7499963E+004  0.2067593E+02  0.7546771E-02  0.1732211E+00
         21   -1    0    0  501  502  0.00000000000E+00  0.00000000000E+00  0.20281059898E+03  0.20281059898E+03  0.00000000000E+00 0. -1.
         21   -1    0    0  502  503 -0.00000000000E+00 -0.00000000000E+00 -0.37789495964E+01  0.37789495964E+01  0.00000000000E+00 0. -1.
          2    1    1    2  501    0 -0.18916563393E+02 -0.83461157880E+01  0.30825722610E+02  0.37117639928E+02  0.00000000000E+00 0. -1.
         -2    1    1    2    0  503  0.18916563393E+02  0.83461157880E+01  0.16820592677E+03  0.16947190864E+03  0.00000000000E+00 0.  1.
<mgrwt>
<rscale>  2 0.20675929E+02</rscale>
<asrwt>0</asrwt>
<pdfrwt beam="1">  1       21 0.31201622E-01 0.20675929E+02</pdfrwt>
<pdfrwt beam="2">  1       21 0.58137702E-03 0.20675929E+02</pdfrwt>
<totfact> 0.60857317E+07</totfact>
</mgrwt>
</event>
<event>
 4    1  0.7499963E+004  0.2801434E+02  0.7546771E-02  0.1621135E+00
         21   -1    0    0  503  502  0.00000000000E+00  0.00000000000E+00  0.93650836255E+01  0.93650836255E+01  0.00000000000E+00 0. -1.
         21   -1    0    0  501  503 -0.00000000000E+00 -0.00000000000E+00 -0.95508139737E+02  0.95508139737E+02  0.00000000000E+00 0. -1.
          2    1    1    2  501    0 -0.27863968067E+02 -0.28987553948E+01 -0.61430128866E+02  0.67516399724E+02  0.00000000000E+00 0. -1.
         -2    1    1    2    0  502  0.27863968067E+02  0.28987553948E+01 -0.24712927246E+02  0.37356823638E+02  0.00000000000E+00 0.  1.
<mgrwt>
<rscale>  2 0.28014345E+02</rscale>
<asrwt>0</asrwt>
<pdfrwt beam="1">  1       21 0.14407820E-02 0.28014345E+02</pdfrwt>
<pdfrwt beam="2">  1       21 0.14693560E-01 0.28014345E+02</pdfrwt>
<totfact> 0.63353270E+07</totfact>
</mgrwt>
</event>
<event>
 4    1  0.7499963E+004  0.3414896E+02  0.7546771E-02  0.1556290E+00
         21   -1    0    0  501  502  0.00000000000E+00  0.00000000000E+00  0.20740664300E+02  0.20740664300E+02  0.00000000000E+00 0. -1.
         21   -1    0    0  502  503 -0.00000000000E+00 -0.00000000000E+00 -0.57737158915E+02  0.57737158915E+02  0.00000000000E+00 0. -1.
          1    1    1    2  501    0 -0.31131038338E+02  0.14036030875E+02 -0.24847659699E+02  0.42232190368E+02  0.00000000000E+00 0.  1.
         -1    1    1    2    0  503  0.31131038338E+02 -0.14036030875E+02 -0.12148834916E+02  0.36245632848E+02  0.00000000000E+00 0. -1.
<mgrwt>
<rscale>  2 0.34148964E+02</rscale>
<asrwt>0</asrwt>
<pdfrwt beam="1">  1       21 0.31908714E-02 0.34148964E+02</pdfrwt>
<pdfrwt beam="2">  1       21 0.88826398E-02 0.34148964E+02</pdfrwt>
<totfact> 0.44972918E+07</totfact>
</mgrwt>
</event>
<event>
 4    1  0.7499963E+004  0.2851369E+02  0.7546771E-02  0.1615124E+00
         21   -1    0    0  501  502  0.00000000000E+00  0.00000000000E+00  0.32598758653E+03  0.32598758653E+03  0.00000000000E+00 0. -1.
         21   -1    0    0  502  503 -0.00000000000E+00 -0.00000000000E+00 -0.29045049468E+01  0.29045049468E+01  0.00000000000E+00 0. -1.
          2    1    1    2  501    0  0.25632012751E+02  0.12491223207E+02  0.99723126854E+02  0.10371949076E+03  0.00000000000E+00 0. -1.
         -2    1    1    2    0  503 -0.25632012751E+02 -0.12491223207E+02  0.22335995472E+03  0.22517260071E+03  0.00000000000E+00 0.  1.
<mgrwt>
<rscale>  2 0.28513694E+02</rscale>
<asrwt>0</asrwt>
<pdfrwt beam="1">  1       21 0.50151908E-01 0.28513694E+02</pdfrwt>
<pdfrwt beam="2">  1       21 0.44684717E-03 0.28513694E+02</pdfrwt>
<totfact> 0.39497284E+07</totfact>
</mgrwt>
</event>
<event>
 4    1  0.7499963E+004  0.2113804E+02  0.7546771E-02  0.1723600E+00
         21   -1    0    0  503  502  0.00000000000E+00  0.00000000000E+00  0.13216694808E+01  0.13216694808E+01  0.00000000000E+00 0. -1.
         21   -1    0    0  501  503 -0.00000000000E+00 -0.00000000000E+00 -0.34018852292E+03  0.34018852292E+03  0.00000000000E+00 0. -1.
          4    1    1    2  501    0 -0.16322212536E+02  0.13431389735E+02 -0.15595849793E+03  0.15738446534E+03  0.00000000000E+00 0. -1.
         -4    1    1    2    0  502  0.16322212536E+02 -0.13431389735E+02 -0.18290835551E+03  0.18412572707E+03  0.00000000000E+00 0.  1.
<mgrwt>
<rscale>  2 0.21138043E+02</rscale>
<asrwt>0</asrwt>
<pdfrwt beam="1">  1       21 0.20333362E-03 0.21138043E+02</pdfrwt>
<pdfrwt beam="2">  1       21 0.52336732E-01 0.21138043E+02</pdfrwt>
<totfact> 0.10696836E+08</totfact>
</mgrwt>
</event>
<event>
 4    1  0.7499963E+004  0.5845061E+02  0.7546771E-02  0.1404451E+00
         21   -1    0    0  503  502  0.00000000000E+00  0.00000000000E+00  0.10477382726E+02  0.10477382726E+02  0.00000000000E+00 0.  1.
         21   -1    0    0  501  503 -0.00000000000E+00 -0.00000000000E+00 -0.49279940821E+03  0.49279940821E+03  0.00000000000E+00 0.  1.
          1    1    1    2  501    0  0.46238935899E+02 -0.35755200602E+02 -0.94797161336E+02  0.11136864622E+03  0.00000000000E+00 0.  1.
         -1    1    1    2    0  502 -0.46238935899E+02  0.35755200602E+02 -0.38752486414E+03  0.39190814471E+03  0.00000000000E+00 0. -1.
<mgrwt>
<rscale>  2 0.58450608E+02</rscale>
<asrwt>0</asrwt>
<pdfrwt beam="1">  1       21 0.16119049E-02 0.58450608E+02</pdfrwt>
<pdfrwt beam="2">  1       21 0.75815300E-01 0.58450608E+02</pdfrwt>
<totfact> 0.26136033E+06</totfact>
</mgrwt>
</event>
<event>
 4    1  0.7499963E+004  0.2280955E+02  0.7546771E-02  0.1694616E+00
         21   -1    0    0  501  502  0.00000000000E+00  0.00000000000E+00  0.22221406981E+01  0.22221406981E+01  0.00000000000E+00 0.  1.
         21   -1    0    0  502  503 -0.00000000000E+00 -0.00000000000E+00 -0.24222728970E+03  0.24222728970E+03  0.00000000000E+00 0.  1.
          3    1    1    2  501    0 -0.22372944788E+02 -0.44414891565E+01 -0.14234594804E+03  0.14416186878E+03  0.00000000000E+00 0. -1.
         -3    1    1    2    0  503  0.22372944788E+02  0.44414891565E+01 -0.97659200961E+02  0.10028756163E+03  0.00000000000E+00 0.  1.
<mgrwt>
<rscale>  2 0.22809548E+02</rscale>
<asrwt>0</asrwt>
<pdfrwt beam="1">  1       21 0.34186769E-03 0.22809548E+02</pdfrwt>
<pdfrwt beam="2">  1       21 0.37265749E-01 0.22809548E+02</pdfrwt>
<totfact> 0.98165260E+07</totfact>
</mgrwt>
</event>
<event>
 4    1  0.7499963E+004  0.2008335E+02  0.7546771E-02  0.1743676E+00
         21   -1    0    0  503  502  0.00000000000E+00  0.00000000000E+00  0.90916264191E+02  0.90916264191E+02  0.00000000000E+00 0. -1.
         21   -1    0    0  501  503 -0.00000000000E+00 -0.00000000000E+00 -0.25789388807E+02  0.25789388807E+02  0.00000000000E+00 0. -1.
          1    1    1    2  501    0  0.16396709924E+02  0.11596940578E+02 -0.20533647995E+02  0.28722322801E+02  0.00000000000E+00 0.  1.
         -1    1    1    2    0  502 -0.16396709924E+02 -0.11596940578E+02  0.85660523379E+02  0.87983330198E+02  0.00000000000E+00 0. -1.
<mgrwt>
<rscale>  2 0.20083354E+02</rscale>
<asrwt>0</asrwt>
<pdfrwt beam="1">  1       21 0.13987117E-01 0.20083354E+02</pdfrwt>
<pdfrwt beam="2">  1       21 0.39675983E-02 0.20083354E+02</pdfrwt>
<totfact> 0.13331905E+07</totfact>
</mgrwt>
</event>
<event>
 4    1  0.7499963E+004  0.3345722E+02  0.7546771E-02  0.1562744E+00
         21   -1    0    0  503  502  0.00000000000E+00  0.00000000000E+00  0.52408661116E+02  0.52408661116E+02  0.00000000000E+00 0. -1.
         21   -1    0    0  501  503 -0.00000000000E+00 -0.00000000000E+00 -0.21810574609E+02  0.21810574609E+02  0.00000000000E+00 0. -1.
          3    1    1    2  501    0  0.32029671833E+02 -0.96687961484E+01  0.20640005056E+02  0.39311516193E+02  0.00000000000E+00 0. -1.
         -3    1    1    2    0  502 -0.32029671833E+02  0.96687961484E+01  0.99580814507E+01  0.34907719531E+02  0.00000000000E+00 0.  1.
<mgrwt>
<rscale>  2 0.33457219E+02</rscale>
<asrwt>0</asrwt>
<pdfrwt beam="1">  1       21 0.80628709E-02 0.33457219E+02</pdfrwt>
<pdfrwt beam="2">  1       21 0.33554730E-02 0.33457219E+02</pdfrwt>
<totfact> 0.48567224E+07</totfact>
</mgrwt>
</event>
<event>
 4    1  0.7499963E+004  0.3077509E+02  0.7546771E-02  0.1589676E+00
         21   -1    0    0  503  502  0.00000000000E+00  0.00000000000E+00  0.97419275657E+01  0.97419275657E+01  0.00000000000E+00 0.  1.
         21   -1    0    0  501  503 -0.00000000000E+00 -0.00000000000E+00 -0.11900758144E+03  0.11900758144E+03  0.00000000000E+00 0.  1.
          2    1    1    2  501    0 -0.21290655469E+02  0.22221924509E+02 -0.82177469423E+02  0.87751025179E+02  0.00000000000E+00 0.  1.
         -2    1    1    2    0  502  0.21290655469E+02 -0.22221924509E+02 -0.27088184449E+02  0.40998483825E+02  0.00000000000E+00 0. -1.
<mgrwt>
<rscale>  2 0.30775086E+02</rscale>
<asrwt>0</asrwt>
<pdfrwt beam="1">  1       21 0.14987580E-02 0.30775086E+02</pdfrwt>
<pdfrwt beam="2">  1       21 0.18308859E-01 0.30775086E+02</pdfrwt>
<totfact> 0.41597363E+07</totfact>
</mgrwt>
</event>
<event>
 4    1  0.7499963E+004  0.2668813E+02  0.7546771E-02  0.1637875E+00
         21   -1    0    0  503  502  0.00000000000E+00  0.00000000000E+00  0.13431544323E+03  0.13431544323E+03  0.00000000000E+00 0.  1.
         21   -1    0    0  501  503 -0.00000000000E+00 -0.00000000000E+00 -0.64653878922E+01  0.64653878922E+01  0.00000000000E+00 0.  1.
          4    1    1    2  501    0  0.79293605147E+00 -0.26676349273E+02  0.34076877776E+02  0.43283830203E+02  0.00000000000E+00 0. -1.
         -4    1    1    2    0  502 -0.79293605147E+00  0.26676349273E+02  0.93773177561E+02  0.97497000918E+02  0.00000000000E+00 0.  1.
<mgrwt>
<rscale>  2 0.26688131E+02</rscale>
<asrwt>0</asrwt>
<pdfrwt beam="1">  1       21 0.20663912E-01 0.26688131E+02</pdfrwt>
<pdfrwt beam="2">  1       21 0.99467516E-03 0.26688131E+02</pdfrwt>
<totfact> 0.60821413E+07</totfact>
</mgrwt>
</event>
<event>
 4    1  0.7499963E+004  0.2380884E+02  0.7546771E-02  0.1678725E+00
         21   -1    0    0  501  502  0.00000000000E+00  0.00000000000E+00  0.41032392175E+01  0.41032392175E+01  0.00000000000E+00 0.  1.
         21   -1    0    0  502  503 -0.00000000000E+00 -0.00000000000E+00 -0.14447821184E+03  0.14447821184E+03  0.00000000000E+00 0.  1.
          3    1    1    2  501    0 -0.22044741137E+01 -0.23706566530E+02 -0.85735912212E+02  0.88980377869E+02  0.00000000000E+00 0.  1.
         -3    1    1    2    0  503  0.22044741137E+01  0.23706566530E+02 -0.54639060412E+02  0.59601073190E+02  0.00000000000E+00 0. -1.
<mgrwt>
<rscale>  2 0.23808843E+02</rscale>
<asrwt>0</asrwt>
<pdfrwt beam="1">  1       21 0.63126747E-03 0.23808843E+02</pdfrwt>
<pdfrwt beam="2">  1       21 0.22227421E-01 0.23808843E+02</pdfrwt>
<totfact> 0.10267081E+08</totfact>
</mgrwt>
</event>
<event>
 4    1  0.7499963E+004  0.3060453E+02  0.7546771E-02  0.1591501E+00
         21   -1    0    0  501  502  0.00000000000E+00  0.00000000000E+00  0.20214704248E+01  0.20214704248E+01  0.00000000000E+00 0.  1.
         21   -1    0    0  502  503 -0.00000000000E+00 -0.00000000000E+00 -0.46373687768E+03  0.46373687768E+03  0.00000000000E+00 0.  1.
          2    1    1    2  501    0 -0.29051387586E+02 -0.96257170009E+01 -0.23763025733E+03  0.23959293969E+03  0.00000000000E+00 0.  1.
         -2    1    1    2    0  503  0.29051387586E+02  0.96257170009E+01 -0.22408514992E+03  0.22616540842E+03  0.00000000000E+00 0. -1.
<mgrwt>
<rscale>  2 0.30604535E+02</rscale>
<asrwt>0</asrwt>
<pdfrwt beam="1">  1       21 0.31099525E-03 0.30604535E+02</pdfrwt>
<pdfrwt beam="2">  1       21 0.71344181E-01 0.30604535E+02</pdfrwt>
<totfact> 0.33540268E+07</totfact>
</mgrwt>
</event>
<event>
 4    1  0.7499963E+004  0.2520180E+02  0.7546771E-02  0.1658120E+00
         21   -1    0    0  501  502  0.00000000000E+00  0.00000000000E+00  0.13447895987E+02  0.13447895987E+02  0.00000000000E+00 0. -1.
         21   -1    0    0  502  503 -0.00000000000E+00 -0.00000000000E+00 -0.66899064371E+02  0.66899064371E+02  0.00000000000E+00 0. -1.
          2    1    1    2  501    0 -0.22296180885E+02 -0.11747802566E+02 -0.48509323600E+02  0.54665208528E+02  0.00000000000E+00 0.  1.
         -2    1    1    2    0  503  0.22296180885E+02  0.11747802566E+02 -0.49418447840E+01  0.25681751830E+02  0.00000000000E+00 0. -1.
<mgrwt>
<rscale>  2 0.25201797E+02</rscale>
<asrwt>0</asrwt>
<pdfrwt beam="1">  1       21 0.20689072E-02 0.25201797E+02</pdfrwt>
<pdfrwt beam="2">  1       21 0.10292163E-01 0.25201797E+02</pdfrwt>
<totfact> 0.64622797E+07</totfact>
</mgrwt>
</event>
<event>
 4    1  0.7499963E+004  0.2535913E+02  0.7546771E-02  0.1655897E+00
         21   -1    0    0  503  502  0.00000000000E+00  0.00000000000E+00  0.72905344965E+01  0.72905344965E+01  0.00000000000E+00 0. -1.
         21   -1    0    0  501  503 -0.00000000000E+00 -0.00000000000E+00 -0.88511545317E+02  0.88511545317E+02  0.00000000000E+00 0. -1.
          1    1    1    2  501    0  0.21787205046E+02  0.12977029637E+02 -0.43414306165E+02  0.50278102408E+02  0.00000000000E+00 0. -1.
         -1    1    1    2    0  502 -0.21787205046E+02 -0.12977029637E+02 -0.37806704655E+02  0.45523977406E+02  0.00000000000E+00 0.  1.
<mgrwt>
<rscale>  2 0.25359133E+02</rscale>
<asrwt>0</asrwt>
<pdfrwt beam="1">  1       21 0.11216208E-02 0.25359133E+02</pdfrwt>
<pdfrwt beam="2">  1       21 0.13617160E-01 0.25359133E+02</pdfrwt>
<totfact> 0.10295799E+08</totfact>
</mgrwt>
</event>
<event>
 4    1  0.7499963E+004  0.2321688E+02  0.7546771E-02  0.1688018E+00
         21   -1    0    0  501  502  0.00000000000E+00  0.00000000000E+00  0.13660814619E+01  0.13660814619E+01  0.00000000000E+00 0. -1.
         21   -1    0    0  502  503 -0.00000000000E+00 -0.00000000000E+00 -0.41752397806E+03  0.41752397806E+03  0.00000000000E+00 0. -1.
          4    1    1    2  501    0 -0.18129207775E+02 -0.14503635769E+02 -0.25718069554E+03  0.25822651642E+03  0.00000000000E+00 0.  1.
         -4    1    1    2    0  503  0.18129207775E+02  0.14503635769E+02 -0.15897720106E+03  0.16066354310E+03  0.00000000000E+00 0. -1.
<mgrwt>
<rscale>  2 0.23216882E+02</rscale>
<asrwt>0</asrwt>
<pdfrwt beam="1">  1       21 0.21016620E-03 0.23216882E+02</pdfrwt>
<pdfrwt beam="2">  1       21 0.64234514E-01 0.23216882E+02</pdfrwt>
<totfact> 0.69553799E+07</totfact>
</mgrwt>
</event>
<event>
 4    1  0.7499963E+004  0.2430697E+02  0.7546771E-02  0.1671160E+00
         21   -1    0    0  501  502  0.00000000000E+00  0.00000000000E+00  0.20542760742E+03  0.20542760742E+03  0.00000000000E+00 0.  1.
         21   -1    0    0  502  503 -0.00000000000E+00 -0.00000000000E+00 -0.31957044131E+01  0.31957044131E+01  0.00000000000E+00 0.  1.
          3    1    1    2  501    0 -0.24033150359E+02 -0.36381883511E+01  0.68127551610E+02  0.72333892602E+02  0.00000000000E+00 0.  1.
         -3    1    1    2    0  503  0.24033150359E+02  0.36381883511E+01  0.13410435140E+03  0.13628941923E+03  0.00000000000E+00 0. -1.
<mgrwt>
<rscale>  2 0.24306969E+02</rscale>
<asrwt>0</asrwt>
<pdfrwt beam="1">  1       21 0.31604237E-01 0.24306969E+02</pdfrwt>
<pdfrwt beam="2">  1       21 0.49164699E-03 0.24306969E+02</pdfrwt>
<totfact> 0.79386161E+07</totfact>
</mgrwt>
</event>
<event>
 4    1  0.7499963E+004  0.2164036E+02  0.7546771E-02  0.1714547E+00
         21   -1    0    0  503  502  0.00000000000E+00  0.00000000000E+00  0.18464949854E+03  0.18464949854E+03  0.00000000000E+00 0.  1.
         21   -1    0    0  501  503 -0.00000000000E+00 -0.00000000000E+00 -0.25865874186E+01  0.25865874186E+01  0.00000000000E+00 0.  1.
          4    1    1    2  501    0 -0.18519825426E+02 -0.11194705209E+02  0.10409978373E+03  0.10632530428E+03  0.00000000000E+00 0.  1.
         -4    1    1    2    0  502  0.18519825426E+02  0.11194705209E+02  0.77963127396E+02  0.80910781679E+02  0.00000000000E+00 0. -1.
<mgrwt>
<rscale>  2 0.21640364E+02</rscale>
<asrwt>0</asrwt>
<pdfrwt beam="1">  1       21 0.28407605E-01 0.21640364E+02</pdfrwt>
<pdfrwt beam="2">  1       21 0.39793667E-03 0.21640364E+02</pdfrwt>
<totfact> 0.12746065E+08</totfact>
</mgrwt>
</event>
<event>
 4    1  0.7499963E+004  0.2224616E+02  0.7546771E-02  0.1704029E+00
         21   -1    0    0  501  502  0.00000000000E+00  0.00000000000E+00  0.19363548633E+02  0.19363548633E+02  0.00000000000E+00 0. -1.
         21   -1    0    0  502  503 -0.00000000000E+00 -0.00000000000E+00 -0.31894559548E+02  0.31894559548E+02  0.00000000000E+00 0. -1.
          4    1    1    2  501    0 -0.10583424790E+01 -0.22220969019E+02 -0.17689148222E+02  0.28421778934E+02  0.00000000000E+00 0. -1.
         -4    1    1    2    0  503  0.10583424790E+01  0.22220969019E+02  0.51581373074E+01  0.22836329246E+02  0.00000000000E+00 0.  1.
<mgrwt>
<rscale>  2 0.22246158E+02</rscale>
<asrwt>0</asrwt>
<pdfrwt beam="1">  1       21 0.29790075E-02 0.22246158E+02</pdfrwt>
<pdfrwt beam="2">  1       21 0.49068553E-02 0.22246158E+02</pdfrwt>
<totfact> 0.11822544E+08</totfact>
</mgrwt>
</event>
<event>
 4    1  0.7499963E+004  0.2388937E+02  0.7546771E-02  0.1677486E+00
         21   -1    0    0  501  502  0.00000000000E+00  0.00000000000E+00  0.15111280141E+02  0.15111280141E+02  0.00000000000E+00 0.  1.
         21   -1    0    0  502  503 -0.00000000000E+00 -0.00000000000E+00 -0.37969769139E+02  0.37969769139E+02  0.00000000000E+00 0.  1.
          3    1    1    2  501    0 -0.11294741453E+02  0.21050674676E+02 -0.13370532424E+02  0.27376508654E+02  0.00000000000E+00 0.  1.
         -3    1    1    2    0  503  0.11294741453E+02 -0.21050674676E+02 -0.94879565740E+01  0.25704540625E+02  0.00000000000E+00 0. -1.
<mgrwt>
<rscale>  2 0.23889372E+02</rscale>
<asrwt>0</asrwt>
<pdfrwt beam="1">  1       21 0.23248124E-02 0.23889372E+02</pdfrwt>
<pdfrwt beam="2">  1       21 0.58415028E-02 0.23889372E+02</pdfrwt>
<totfact> 0.13422212E+08</totfact>
</mgrwt>
</event>
<event>
 4    1  0.7499963E+004  0.2287112E+02  0.7546771E-02  0.1693608E+00
         21   -1    0    0  503  502  0.00000000000E+00  0.00000000000E+00  0.19946520047E+02  0.19946520047E+02  0.00000000000E+00 0.  1.
         21   -1    0    0  501  503 -0.00000000000E+00 -0.00000000000E+00 -0.61016462296E+02  0.61016462296E+02  0.00000000000E+00 0.  1.
          1    1    1    2  501    0 -0.14233910153E+02  0.17902060270E+02  0.10033401066E+02  0.24975129571E+02  0.00000000000E+00 0. -1.
         -1    1    1    2    0  502  0.14233910153E+02 -0.17902060270E+02 -0.51103343314E+02  0.55987852772E+02  0.00000000000E+00 0.  1.
<mgrwt>
<rscale>  2 0.22871116E+02</rscale>
<asrwt>0</asrwt>
<pdfrwt beam="1">  1       21 0.30686954E-02 0.22871116E+02</pdfrwt>
<pdfrwt beam="2">  1       21 0.93871480E-02 0.22871116E+02</pdfrwt>
<totfact> 0.39867857E+07</totfact>
</mgrwt>
</event>
<event>
 4    1  0.7499963E+004  0.2372047E+02  0.7546771E-02  0.1680091E+00
         21   -1    0    0  501  502  0.00000000000E+00  0.00000000000E+00  0.54780855905E+02  0.54780855905E+02  0.00000000000E+00 0.  1.
         21   -1    0    0  502  503 -0.00000000000E+00 -0.00000000000E+00 -0.10920108378E+02  0.10920108378E+02  0.00000000000E+00 0.  1.
          2    1    1    2  501    0 -0.23242728157E+02  0.47366784157E+01  0.29938815433E+02  0.38196769551E+02  0.00000000000E+00 0.  1.
         -2    1    1    2    0  503  0.23242728157E+02 -0.47366784157E+01  0.13921932095E+02  0.27504194732E+02  0.00000000000E+00 0. -1.
<mgrwt>
<rscale>  2 0.23720467E+02</rscale>
<asrwt>0</asrwt>
<pdfrwt beam="1">  1       21 0.84278238E-02 0.23720467E+02</pdfrwt>
<pdfrwt beam="2">  1       21 0.16800167E-02 0.23720467E+02</pdfrwt>
<totfact> 0.12171246E+08</totfact>
</mgrwt>
</event>
<event>
 4    1  0.7499963E+004  0.5285919E+02  0.7546771E-02  0.1430503E+00
         21   -1    0    0  503  502  0.00000000000E+00  0.00000000000E+00  0.16871503514E+03  0.16871503514E+03  0.00000000000E+00 0. -1.
         21   -1    0    0  501  503 -0.00000000000E+00 -0.00000000000E+00 -0.17484886761E+02  0.17484886761E+02  0.00000000000E+00 0. -1.
          4    1    1    2  501    0 -0.47444303804E+02  0.23305187822E+02  0.97015470805E+02  0.11048119894E+03  0.00000000000E+00 0.  1.
         -4    1    1    2    0  502  0.47444303804E+02 -0.23305187822E+02  0.54214677571E+02  0.75718722962E+02  0.00000000000E+00 0. -1.
<mgrwt>
<rscale>  2 0.52859188E+02</rscale>
<asrwt>0</asrwt>
<pdfrwt beam="1">  1       21 0.25956158E-01 0.52859188E+02</pdfrwt>
<pdfrwt beam="2">  1       21 0.26899827E-02 0.52859188E+02</pdfrwt>
<totfact> 0.96796266E+06</totfact>
</mgrwt>
</event>
<event>
 4    1  0.7499963E+004  0.3144990E+02  0.7546771E-02  0.1582594E+00
         21   -1    0    0  503  502  0.00000000000E+00  0.00000000000E+00  0.25510621624E+03  0.25510621624E+03  0.00000000000E+00 0. -1.
         21   -1    0    0  501  503 -0.00000000000E+00 -0.00000000000E+00 -0.43423922572E+01  0.43423922572E+01  0.00000000000E+00 0. -1.
          5    1    1    2  501    0  0.22198532688E+01  0.31371459666E+02  0.82922304492E+02  0.88685989944E+02  0.00000000000E+00 0.  1.
         -5    1    1    2    0  502 -0.22198532688E+01 -0.31371459666E+02  0.16784151949E+03  0.17076261855E+03  0.00000000000E+00 0. -1.
<mgrwt>
<rscale>  2 0.31449900E+02</rscale>
<asrwt>0</asrwt>
<pdfrwt beam="1">  1       21 0.39247098E-01 0.31449900E+02</pdfrwt>
<pdfrwt beam="2">  1       21 0.66806055E-03 0.31449900E+02</pdfrwt>
<totfact> 0.35498141E+07</totfact>
</mgrwt>
</event>
<event>
 4    1  0.7499963E+004  0.2066441E+02  0.7546771E-02  0.1732429E+00
         21   -1    0    0  503  502  0.00000000000E+00  0.00000000000E+00  0.24389107414E+03  0.24389107414E+03  0.00000000000E+00 0. -1.
         21   -1    0    0  501  503 -0.00000000000E+00 -0.00000000000E+00 -0.59248243988E+01  0.59248243988E+01  0.00000000000E+00 0. -1.
          2    1    1    2  501    0  0.18887540475E+02  0.83832308850E+01  0.22382312225E+03  0.22477501596E+03  0.00000000000E+00 0.  1.
         -2    1    1    2    0  502 -0.18887540475E+02 -0.83832308850E+01  0.14143127494E+02  0.25040882584E+02  0.00000000000E+00 0. -1.
<mgrwt>
<rscale>  2 0.20664408E+02</rscale>
<asrwt>0</asrwt>
<pdfrwt beam="1">  1       21 0.37521696E-01 0.20664408E+02</pdfrwt>
<pdfrwt beam="2">  1       21 0.91151164E-03 0.20664408E+02</pdfrwt>
<totfact> 0.22245552E+07</totfact>
</mgrwt>
</event>
<event>
 4    1  0.7499963E+004  0.2288879E+02  0.7546771E-02  0.1693319E+00
         21   -1    0    0  501  502  0.00000000000E+00  0.00000000000E+00  0.29670461227E+01  0.29670461227E+01  0.00000000000E+00 0.  1.
         21   -1    0    0  502  503 -0.00000000000E+00 -0.00000000000E+00 -0.17914036183E+03  0.17914036183E+03  0.00000000000E+00 0.  1.
          3    1    1    2  501    0  0.15714124548E+01  0.22834782783E+02 -0.77183637112E+02  0.80505965491E+02  0.00000000000E+00 0.  1.
         -3    1    1    2    0  503 -0.15714124548E+01 -0.22834782783E+02 -0.98989678593E+02  0.10160144246E+03  0.00000000000E+00 0. -1.
<mgrwt>
<rscale>  2 0.22888789E+02</rscale>
<asrwt>0</asrwt>
<pdfrwt beam="1">  1       21 0.45646867E-03 0.22888789E+02</pdfrwt>
<pdfrwt beam="2">  1       21 0.27560053E-01 0.22888789E+02</pdfrwt>
<totfact> 0.11179754E+08</totfact>
</mgrwt>
</event>
<event>
 4    1  0.7499963E+004  0.2050434E+02  0.7546771E-02  0.1735481E+00
         21   -1    0    0  503  502  0.00000000000E+00  0.00000000000E+00  0.18279849347E+02  0.18279849347E+02  0.00000000000E+00 0. -1.
         21   -1    0    0  501  503 -0.00000000000E+00 -0.00000000000E+00 -0.24080295866E+02  0.24080295866E+02  0.00000000000E+00 0. -1.
          4    1    1    2  501    0 -0.35096126202E+01 -0.20201748226E+02 -0.73872802998E+01  0.21794492936E+02  0.00000000000E+00 0.  1.
         -4    1    1    2    0  502  0.35096126202E+01  0.20201748226E+02  0.15868337813E+01  0.20565652277E+02  0.00000000000E+00 0. -1.
<mgrwt>
<rscale>  2 0.20504341E+02</rscale>
<asrwt>0</asrwt>
<pdfrwt beam="1">  1       21 0.28122845E-02 0.20504341E+02</pdfrwt>
<pdfrwt beam="2">  1       21 0.37046609E-02 0.20504341E+02</pdfrwt>
<totfact> 0.19626910E+08</totfact>
</mgrwt>
</event>
<event>
 4    1  0.7499963E+004  0.2569019E+02  0.7546771E-02  0.1651282E+00
         21   -1    0    0  503  502  0.00000000000E+00  0.00000000000E+00  0.16471797675E+04  0.16471797675E+04  0.00000000000E+00 0. -1.
         21   -1    0    0  501  503 -0.00000000000E+00 -0.00000000000E+00 -0.41543203494E+00  0.41543203494E+00  0.00000000000E+00 0. -1.
          2    1    1    2  501    0  0.29848240064E+01  0.25516199461E+02  0.66812434077E+03  0.66861806761E+03  0.00000000000E+00 0. -1.
         -2    1    1    2    0  502 -0.29848240064E+01 -0.25516199461E+02  0.97863999470E+03  0.97897713193E+03  0.00000000000E+00 0.  1.
<mgrwt>
<rscale>  2 0.25690185E+02</rscale>
<asrwt>0</asrwt>
<pdfrwt beam="1">  1       21 0.25340704E+00 0.25690185E+02</pdfrwt>
<pdfrwt beam="2">  1       21 0.63913940E-04 0.25690185E+02</pdfrwt>
<totfact> 0.15590274E+07</totfact>
</mgrwt>
</event>
<event>
 4    1  0.7499963E+004  0.2306621E+02  0.7546771E-02  0.1690439E+00
         21   -1    0    0  503  502  0.00000000000E+00  0.00000000000E+00  0.83605194196E+00  0.83605194196E+00  0.00000000000E+00 0.  1.
         21   -1    0    0  501  503 -0.00000000000E+00 -0.00000000000E+00 -0.67903990227E+03  0.67903990227E+03  0.00000000000E+00 0.  1.
          1    1    1    2  501    0  0.21601863179E+02 -0.80876111874E+01 -0.25390137385E+03  0.25494697016E+03  0.00000000000E+00 0.  1.
         -1    1    1    2    0  502 -0.21601863179E+02  0.80876111874E+01 -0.42430247647E+03  0.42492898405E+03  0.00000000000E+00 0. -1.
<mgrwt>
<rscale>  2 0.23066208E+02</rscale>
<asrwt>0</asrwt>
<pdfrwt beam="1">  1       21 0.12862288E-03 0.23066208E+02</pdfrwt>
<pdfrwt beam="2">  1       21 0.10446808E+00 0.23066208E+02</pdfrwt>
<totfact> 0.50443041E+07</totfact>
</mgrwt>
</event>
<event>
 4    1  0.7499963E+004  0.3219905E+02  0.7546771E-02  0.1574980E+00
         21   -1    0    0  503  502  0.00000000000E+00  0.00000000000E+00  0.13264912766E+03  0.13264912766E+03  0.00000000000E+00 0.  1.
         21   -1    0    0  501  503 -0.00000000000E+00 -0.00000000000E+00 -0.13780090118E+02  0.13780090118E+02  0.00000000000E+00 0.  1.
          5    1    1    2  501    0  0.24474734824E+02  0.20922864949E+02  0.10760108028E+03  0.11231549938E+03  0.00000000000E+00 0.  1.
         -5    1    1    2    0  502 -0.24474734824E+02 -0.20922864949E+02  0.11267957260E+02  0.34113718402E+02  0.00000000000E+00 0. -1.
<mgrwt>
<rscale>  2 0.32199052E+02</rscale>
<asrwt>0</asrwt>
<pdfrwt beam="1">  1       21 0.20407557E-01 0.32199052E+02</pdfrwt>
<pdfrwt beam="2">  1       21 0.21200140E-02 0.32199052E+02</pdfrwt>
<totfact> 0.20276862E+07</totfact>
</mgrwt>
</event>
<event>
 4    1  0.7499963E+004  0.3119912E+02  0.7546771E-02  0.1585200E+00
         21   -1    0    0  503  502  0.00000000000E+00  0.00000000000E+00  0.40506712767E+02  0.40506712767E+02  0.00000000000E+00 0.  1.
         21   -1    0    0  501  503 -0.00000000000E+00 -0.00000000000E+00 -0.26334556150E+02  0.26334556150E+02  0.00000000000E+00 0.  1.
          4    1    1    2  501    0  0.30394372044E+02  0.70403938143E+01  0.16972181115E+02  0.35516755606E+02  0.00000000000E+00 0.  1.
         -4    1    1    2    0  502 -0.30394372044E+02 -0.70403938143E+01 -0.28000244983E+01  0.31324513311E+02  0.00000000000E+00 0. -1.
<mgrwt>
<rscale>  2 0.31199119E+02</rscale>
<asrwt>0</asrwt>
<pdfrwt beam="1">  1       21 0.62318020E-02 0.31199119E+02</pdfrwt>
<pdfrwt beam="2">  1       21 0.40514702E-02 0.31199119E+02</pdfrwt>
<totfact> 0.54122736E+07</totfact>
</mgrwt>
</event>
<event>
 4    1  0.7499963E+004  0.2588609E+02  0.7546771E-02  0.1648591E+00
         21   -1    0    0  503  502  0.00000000000E+00  0.00000000000E+00  0.37402785040E+03  0.37402785040E+03  0.00000000000E+00 0. -1.
         21   -1    0    0  501  503 -0.00000000000E+00 -0.00000000000E+00 -0.17917077039E+01  0.17917077039E+01  0.00000000000E+00 0. -1.
          4    1    1    2  501    0 -0.25243049129E+02  0.57339646514E+01  0.18787675113E+03  0.18965168993E+03  0.00000000000E+00 0. -1.
         -4    1    1    2    0  502  0.25243049129E+02 -0.57339646514E+01  0.18435939156E+03  0.18616786817E+03  0.00000000000E+00 0.  1.
<mgrwt>
<rscale>  2 0.25886094E+02</rscale>
<asrwt>0</asrwt>
<pdfrwt beam="1">  1       21 0.57542684E-01 0.25886094E+02</pdfrwt>
<pdfrwt beam="2">  1       21 0.27564764E-03 0.25886094E+02</pdfrwt>
<totfact> 0.59987644E+07</totfact>
</mgrwt>
</event>
<event>
 4    1  0.7499963E+004  0.2272924E+02  0.7546771E-02  0.1695937E+00
         21   -1    0    0  503  502  0.00000000000E+00  0.00000000000E+00  0.21260901335E+03  0.21260901335E+03  0.00000000000E+00 0. -1.
         21   -1    0    0  501  503 -0.00000000000E+00 -0.00000000000E+00 -0.25825069657E+01  0.25825069657E+01  0.00000000000E+00 0. -1.
          3    1    1    2  501    0  0.90416416391E+01  0.20853470451E+02  0.13116871810E+03  0.13312344317E+03  0.00000000000E+00 0. -1.
         -3    1    1    2    0  502 -0.90416416391E+01 -0.20853470451E+02  0.78857788289E+02  0.82068077150E+02  0.00000000000E+00 0.  1.
<mgrwt>
<rscale>  2 0.22729244E+02</rscale>
<asrwt>0</asrwt>
<pdfrwt beam="1">  1       21 0.32709065E-01 0.22729244E+02</pdfrwt>
<pdfrwt beam="2">  1       21 0.39730893E-03 0.22729244E+02</pdfrwt>
<totfact> 0.10019749E+08</totfact>
</mgrwt>
</event>
<event>
 4    1  0.7499963E+004  0.2060590E+02  0.7546771E-02  0.1733541E+00
         21   -1    0    0  501  502  0.00000000000E+00  0.00000000000E+00  0.92298186490E+00  0.92298186490E+00  0.00000000000E+00 0.  1.
         21   -1    0    0  502  503 -0.00000000000E+00 -0.00000000000E+00 -0.52562085742E+03  0.52562085742E+03  0.00000000000E+00 0.  1.
          3    1    1    2  501    0 -0.20567305098E+02  0.12606449420E+01 -0.16935045839E+03  0.17059947544E+03  0.00000000000E+00 0.  1.
         -3    1    1    2    0  503  0.20567305098E+02 -0.12606449420E+01 -0.35534741716E+03  0.35594436384E+03  0.00000000000E+00 0. -1.
<mgrwt>
<rscale>  2 0.20605904E+02</rscale>
<asrwt>0</asrwt>
<pdfrwt beam="1">  1       21 0.14199669E-03 0.20605904E+02</pdfrwt>
<pdfrwt beam="2">  1       21 0.80865042E-01 0.20605904E+02</pdfrwt>
<totfact> 0.73911281E+07</totfact>
</mgrwt>
</event>
<event>
 4    1  0.7499963E+004  0.2048576E+02  0.7546771E-02  0.1735837E+00
         21   -1    0    0  503  502  0.00000000000E+00  0.00000000000E+00  0.10931074101E+01  0.10931074101E+01  0.00000000000E+00 0. -1.
         21   -1    0    0  501  503 -0.00000000000E+00 -0.00000000000E+00 -0.40819828472E+03  0.40819828472E+03  0.00000000000E+00 0. -1.
          5    1    1    2  501    0  0.10226462255E+02  0.17750656236E+02 -0.25346076369E+03  0.25428728843E+03  0.00000000000E+00 0.  1.
         -5    1    1    2    0  502 -0.10226462255E+02 -0.17750656236E+02 -0.15364441362E+03  0.15500410370E+03  0.00000000000E+00 0. -1.
<mgrwt>
<rscale>  2 0.20485759E+02</rscale>
<asrwt>0</asrwt>
<pdfrwt beam="1">  1       21 0.16817025E-03 0.20485759E+02</pdfrwt>
<pdfrwt beam="2">  1       21 0.62799782E-01 0.20485759E+02</pdfrwt>
<totfact> 0.97199492E+07</totfact>
</mgrwt>
</event>
<event>
 4    1  0.7499963E+004  0.4126099E+02  0.7546771E-02  0.1499132E+00
         21   -1    0    0  501  502  0.00000000000E+00  0.00000000000E+00  0.10342190982E+03  0.10342190982E+03  0.00000000000E+00 0.  1.
         21   -1    0    0  502  503 -0.00000000000E+00 -0.00000000000E+00 -0.22144492460E+02  0.22144492460E+02  0.00000000000E+00 0.  1.
          3    1    1    2  501    0 -0.26428077938E+02 -0.31686373377E+02  0.88331593444E+01  0.42195903418E+02  0.00000000000E+00 0. -1.
         -3    1    1    2    0  503  0.26428077938E+02  0.31686373377E+02  0.72444258019E+02  0.83370498866E+02  0.00000000000E+00 0.  1.
<mgrwt>
<rscale>  2 0.41260993E+02</rscale>
<asrwt>0</asrwt>
<pdfrwt beam="1">  1       21 0.15911063E-01 0.41260993E+02</pdfrwt>
<pdfrwt beam="2">  1       21 0.34068451E-02 0.41260993E+02</pdfrwt>
<totfact> 0.15489953E+07</totfact>
</mgrwt>
</event>
<event>
 4    1  0.7499963E+004  0.2651005E+02  0.7546771E-02  0.1640214E+00
         21   -1    0    0  501  502  0.00000000000E+00  0.00000000000E+00  0.81638913841E+03  0.81638913841E+03  0.00000000000E+00 0.  1.
         21   -1    0    0  502  503 -0.00000000000E+00 -0.00000000000E+00 -0.90166507563E+00  0.90166507563E+00  0.00000000000E+00 0.  1.
          2    1    1    2  501    0 -0.11536099161E+01  0.26484942225E+02  0.32079348433E+03  0.32188700280E+03  0.00000000000E+00 0.  1.
         -2    1    1    2    0  503  0.11536099161E+01 -0.26484942225E+02  0.49469398901E+03  0.49540380069E+03  0.00000000000E+00 0. -1.
<mgrwt>
<rscale>  2 0.26510054E+02</rscale>
<asrwt>0</asrwt>
<pdfrwt beam="1">  1       21 0.12559774E+00 0.26510054E+02</pdfrwt>
<pdfrwt beam="2">  1       21 0.13871836E-03 0.26510054E+02</pdfrwt>
<totfact> 0.30713942E+07</totfact>
</mgrwt>
</event>
<event>
 4    1  0.7499963E+004  0.2164545E+02  0.7546771E-02  0.1714457E+00
         21   -1    0    0  501  502  0.00000000000E+00  0.00000000000E+00  0.12434824249E+02  0.12434824249E+02  0.00000000000E+00 0.  1.
         21   -1    0    0  502  503 -0.00000000000E+00 -0.00000000000E+00 -0.41577873674E+02  0.41577873674E+02  0.00000000000E+00 0.  1.
          5    1    1    2  501    0  0.20191325552E+02 -0.77997367829E+01 -0.22842032654E+02  0.31468777816E+02  0.00000000000E+00 0.  1.
         -5    1    1    2    0  503 -0.20191325552E+02  0.77997367829E+01 -0.63010167709E+01  0.22543920107E+02  0.00000000000E+00 0. -1.
<mgrwt>
<rscale>  2 0.21645450E+02</rscale>
<asrwt>0</asrwt>
<pdfrwt beam="1">  1       21 0.19130499E-02 0.21645450E+02</pdfrwt>
<pdfrwt beam="2">  1       21 0.63965960E-02 0.21645450E+02</pdfrwt>
<totfact> 0.15191677E+08</totfact>
</mgrwt>
</event>
<event>
 4    1  0.7499963E+004  0.2025642E+02  0.7546771E-02  0.1740276E+00
         21   -1    0    0  501  502  0.00000000000E+00  0.00000000000E+00  0.11783469435E+04  0.11783469435E+04  0.00000000000E+00 0. -1.
         21   -1    0    0  502  503 -0.00000000000E+00 -0.00000000000E+00 -0.55692839088E+00  0.55692839088E+00  0.00000000000E+00 0. -1.
          4    1    1    2  501    0  0.20046341917E+02 -0.29097325834E+01  0.94973950845E+03  0.94995550226E+03  0.00000000000E+00 0. -1.
         -4    1    1    2    0  503 -0.20046341917E+02  0.29097325834E+01  0.22805050662E+03  0.22894836959E+03  0.00000000000E+00 0.  1.
<mgrwt>
<rscale>  2 0.20256415E+02</rscale>
<asrwt>0</asrwt>
<pdfrwt beam="1">  1       21 0.18128215E+00 0.20256415E+02</pdfrwt>
<pdfrwt beam="2">  1       21 0.85682234E-04 0.20256415E+02</pdfrwt>
<totfact> 0.24315802E+07</totfact>
</mgrwt>
</event>
<event>
 4    1  0.7499963E+004  0.2488102E+02  0.7546771E-02  0.1662717E+00
         21   -1    0    0  503  502  0.00000000000E+00  0.00000000000E+00  0.22131575860E+03  0.22131575860E+03  0.00000000000E+00 0.  1.
         21   -1    0    0  501  503 -0.00000000000E+00 -0.00000000000E+00 -0.30237982650E+01  0.30237982650E+01  0.00000000000E+00 0.  1.
          1    1    1    2  501    0  0.13985804367E+02 -0.20578196881E+02  0.78439806122E+02  0.82291360999E+02  0.00000000000E+00 0. -1.
         -1    1    1    2    0  502 -0.13985804367E+02  0.20578196881E+02  0.13985215421E+03  0.14204819586E+03  0.00000000000E+00 0.  1.
<mgrwt>
<rscale>  2 0.24881015E+02</rscale>
<asrwt>0</asrwt>
<pdfrwt beam="1">  1       21 0.34048566E-01 0.24881015E+02</pdfrwt>
<pdfrwt beam="2">  1       21 0.46519991E-03 0.24881015E+02</pdfrwt>
<totfact> 0.75517480E+07</totfact>
</mgrwt>
</event>
<event>
 4    1  0.7499963E+004  0.3326643E+02  0.7546771E-02  0.1564557E+00
         21   -1    0    0  503  502  0.00000000000E+00  0.00000000000E+00  0.67104068708E+01  0.67104068708E+01  0.00000000000E+00 0.  1.
         21   -1    0    0  501  503 -0.00000000000E+00 -0.00000000000E+00 -0.16495074833E+03  0.16495074833E+03  0.00000000000E+00 0.  1.
          1    1    1    2  501    0  0.39557298726E+01  0.33030404280E+02 -0.80360713786E+02  0.86974132510E+02  0.00000000000E+00 0. -1.
         -1    1    1    2    0  502 -0.39557298726E+01 -0.33030404280E+02 -0.77879627672E+02  0.84687022690E+02  0.00000000000E+00 0.  1.
<mgrwt>
<rscale>  2 0.33266431E+02</rscale>
<asrwt>0</asrwt>
<pdfrwt beam="1">  1       21 0.10323702E-02 0.33266431E+02</pdfrwt>
<pdfrwt beam="2">  1       21 0.25377040E-01 0.33266431E+02</pdfrwt>
<totfact> 0.41759124E+07</totfact>
</mgrwt>
</event>
<event>
 4    1  0.7499963E+004  0.3143788E+02  0.7546771E-02  0.1582718E+00
         21   -1    0    0  501  502  0.00000000000E+00  0.00000000000E+00  0.11651489072E+01  0.11651489072E+01  0.00000000000E+00 0.  1.
         21   -1    0    0  502  503 -0.00000000000E+00 -0.00000000000E+00 -0.89089332908E+03  0.89089332908E+03  0.00000000000E+00 0.  1.
          3    1    1    2  501    0 -0.29047255021E+02 -0.12024849971E+02 -0.54244507232E+03  0.54335531333E+03  0.00000000000E+00 0.  1.
         -3    1    1    2    0  503  0.29047255021E+02  0.12024849971E+02 -0.34728310785E+03  0.34870316465E+03  0.00000000000E+00 0. -1.
<mgrwt>
<rscale>  2 0.31437876E+02</rscale>
<asrwt>0</asrwt>
<pdfrwt beam="1">  1       21 0.17925320E-03 0.31437876E+02</pdfrwt>
<pdfrwt beam="2">  1       21 0.13706088E+00 0.31437876E+02</pdfrwt>
<totfact> 0.17757512E+07</totfact>
</mgrwt>
</event>
<event>
 4    1  0.7499963E+004  0.3253786E+02  0.7546771E-02  0.1571619E+00
         21   -1    0    0  503  502  0.00000000000E+00  0.00000000000E+00  0.75196229693E+01  0.75196229693E+01  0.00000000000E+00 0.  1.
         21   -1    0    0  501  503 -0.00000000000E+00 -0.00000000000E+00 -0.62865793761E+03  0.62865793761E+03  0.00000000000E+00 0.  1.
          3    1    1    2  501    0  0.21330801126E+02  0.24570495421E+02 -0.59078380374E+03  0.59167914877E+03  0.00000000000E+00 0.  1.
         -3    1    1    2    0  502 -0.21330801126E+02 -0.24570495421E+02 -0.30354510898E+02  0.44498411812E+02  0.00000000000E+00 0. -1.
<mgrwt>
<rscale>  2 0.32537860E+02</rscale>
<asrwt>0</asrwt>
<pdfrwt beam="1">  1       21 0.11568647E-02 0.32537860E+02</pdfrwt>
<pdfrwt beam="2">  1       21 0.96716633E-01 0.32537860E+02</pdfrwt>
<totfact> 0.24643326E+06</totfact>
</mgrwt>
</event>
<event>
 4    1  0.7499963E+004  0.2382679E+02  0.7546771E-02  0.1678448E+00
         21   -1    0    0  503  502  0.00000000000E+00  0.00000000000E+00  0.14033355782E+03  0.14033355782E+03  0.00000000000E+00 0.  1.
         21   -1    0    0  501  503 -0.00000000000E+00 -0.00000000000E+00 -0.40626298213E+01  0.40626298213E+01  0.00000000000E+00 0.  1.
          1    1    1    2  501    0 -0.17082538537E+02 -0.16610328951E+02  0.72826757131E+02  0.76625405089E+02  0.00000000000E+00 0.  1.
         -1    1    1    2    0  502  0.17082538537E+02  0.16610328951E+02  0.63444170867E+02  0.67770782552E+02  0.00000000000E+00 0. -1.
<mgrwt>
<rscale>  2 0.23826795E+02</rscale>
<asrwt>0</asrwt>
<pdfrwt beam="1">  1       21 0.21589774E-01 0.23826795E+02</pdfrwt>
<pdfrwt beam="2">  1       21 0.62502008E-03 0.23826795E+02</pdfrwt>
<totfact> 0.10970611E+08</totfact>
</mgrwt>
</event>
<event>
 4    1  0.7499963E+004  0.2552462E+02  0.7546771E-02  0.1653579E+00
         21   -1    0    0  501  502  0.00000000000E+00  0.00000000000E+00  0.51498638894E+01  0.51498638894E+01  0.00000000000E+00 0.  1.
         21   -1    0    0  502  503 -0.00000000000E+00 -0.00000000000E+00 -0.16509872148E+03  0.16509872148E+03  0.00000000000E+00 0.  1.
          5    1    1    2  501    0  0.18820643619E+02  0.17242082797E+02 -0.12112874511E+03  0.12378884819E+03  0.00000000000E+00 0.  1.
         -5    1    1    2    0  503 -0.18820643619E+02 -0.17242082797E+02 -0.38820112483E+02  0.46459737178E+02  0.00000000000E+00 0. -1.
<mgrwt>
<rscale>  2 0.25524616E+02</rscale>
<asrwt>0</asrwt>
<pdfrwt beam="1">  1       21 0.79228673E-03 0.25524616E+02</pdfrwt>
<pdfrwt beam="2">  1       21 0.25399804E-01 0.25524616E+02</pdfrwt>
<totfact> 0.58722206E+07</totfact>
</mgrwt>
</event>
<event>
 4    1  0.7499963E+004  0.4996297E+02  0.7546771E-02  0.1445541E+00
         21   -1    0    0  503  502  0.00000000000E+00  0.00000000000E+00  0.17496367297E+01  0.17496367297E+01  0.00000000000E+00 0. -1.
         21   -1    0    0  501  503 -0.00000000000E+00 -0.00000000000E+00 -0.16564545985E+04  0.16564545985E+04  0.00000000000E+00 0. -1.
          1    1    1    2  501    0  0.23076856868E+02 -0.44314302756E+02 -0.51860697573E+03  0.52100815160E+03  0.00000000000E+00 0. -1.
         -1    1    1    2    0  502 -0.23076856868E+02  0.44314302756E+02 -0.11360979860E+04  0.11371960836E+04  0.00000000000E+00 0.  1.
<mgrwt>
<rscale>  2 0.49962974E+02</rscale>
<asrwt>0</asrwt>
<pdfrwt beam="1">  1       21 0.26917501E-03 0.49962974E+02</pdfrwt>
<pdfrwt beam="2">  1       21 0.25483905E+00 0.49962974E+02</pdfrwt>
<totfact> 0.19310477E+06</totfact>
</mgrwt>
</event>
<event>
 4    1  0.7499963E+004  0.3072102E+02  0.7546771E-02  0.1590253E+00
         21   -1    0    0  501  502  0.00000000000E+00  0.00000000000E+00  0.33381561981E+01  0.33381561981E+01  0.00000000000E+00 0. -1.
         21   -1    0    0  502  503 -0.00000000000E+00 -0.00000000000E+00 -0.28278930503E+03  0.28278930503E+03  0.00000000000E+00 0. -1.
          5    1    1    2  501    0 -0.21322449494E+02 -0.22116381272E+02 -0.13757306373E+03  0.14096144521E+03  0.00000000000E+00 0. -1.
         -5    1    1    2    0  503  0.21322449494E+02  0.22116381272E+02 -0.14187808510E+03  0.14516601601E+03  0.00000000000E+00 0.  1.
<mgrwt>
<rscale>  2 0.30721022E+02</rscale>
<asrwt>0</asrwt>
<pdfrwt beam="1">  1       21 0.51356239E-03 0.30721022E+02</pdfrwt>
<pdfrwt beam="2">  1       21 0.43506056E-01 0.30721022E+02</pdfrwt>
<totfact> 0.42984361E+07</totfact>
</mgrwt>
</event>
<event>
 4    1  0.7499963E+004  0.8441270E+02  0.7546771E-02  0.1316976E+00
         21   -1    0    0  503  502  0.00000000000E+00  0.00000000000E+00  0.73733019739E+02  0.73733019739E+02  0.00000000000E+00 0.  1.
         21   -1    0    0  501  503 -0.00000000000E+00 -0.00000000000E+00 -0.12192239228E+03  0.12192239228E+03  0.00000000000E+00 0.  1.
          5    1    1    2  501    0 -0.10266649963E+02 -0.83786034663E+02 -0.68643450245E+02  0.10879994011E+03  0.00000000000E+00 0. -1.
         -5    1    1    2    0  502  0.10266649963E+02  0.83786034663E+02  0.20454077704E+02  0.86855471910E+02  0.00000000000E+00 0.  1.
<mgrwt>
<rscale>  2 0.84412699E+02</rscale>
<asrwt>0</asrwt>
<pdfrwt beam="1">  1       21 0.11343542E-01 0.84412699E+02</pdfrwt>
<pdfrwt beam="2">  1       21 0.18757291E-01 0.84412699E+02</pdfrwt>
<totfact> 0.16599239E+06</totfact>
</mgrwt>
</event>
<event>
 4    1  0.7499963E+004  0.3939880E+02  0.7546771E-02  0.1512683E+00
         21   -1    0    0  503  502  0.00000000000E+00  0.00000000000E+00  0.78305909877E+02  0.78305909877E+02  0.00000000000E+00 0.  1.
         21   -1    0    0  501  503 -0.00000000000E+00 -0.00000000000E+00 -0.21877931582E+02  0.21877931582E+02  0.00000000000E+00 0.  1.
          1    1    1    2  501    0 -0.25574123483E+02  0.29970481321E+02  0.12862407421E+02  0.41445229728E+02  0.00000000000E+00 0. -1.
         -1    1    1    2    0  502  0.25574123483E+02 -0.29970481321E+02  0.43565570874E+02  0.58738611731E+02  0.00000000000E+00 0.  1.
<mgrwt>
<rscale>  2 0.39398801E+02</rscale>
<asrwt>0</asrwt>
<pdfrwt beam="1">  1       21 0.12047063E-01 0.39398801E+02</pdfrwt>
<pdfrwt beam="2">  1       21 0.33658357E-02 0.39398801E+02</pdfrwt>
<totfact> 0.25362558E+07</totfact>
</mgrwt>
</event>
<event>
 4    1  0.7499963E+004  0.2064946E+02  0.7546771E-02  0.1732713E+00
         21   -1    0    0  501  502  0.00000000000E+00  0.00000000000E+00  0.99455262762E+02  0.99455262762E+02  0.00000000000E+00 0. -1.
         21   -1    0    0  502  503 -0.00000000000E+00 -0.00000000000E+00 -0.75415745926E+01  0.75415745926E+01  0.00000000000E+00 0. -1.
          5    1    1    2  501    0 -0.18114833265E+02 -0.99122725788E+01  0.10814304157E+02  0.23309858564E+02  0.00000000000E+00 0. -1.
         -5    1    1    2    0  503  0.18114833265E+02  0.99122725788E+01  0.81099384012E+02  0.83686978790E+02  0.00000000000E+00 0.  1.
<mgrwt>
<rscale>  2 0.20649463E+02</rscale>
<asrwt>0</asrwt>
<pdfrwt beam="1">  1       21 0.15300809E-01 0.20649463E+02</pdfrwt>
<pdfrwt beam="2">  1       21 0.11602423E-02 0.20649463E+02</pdfrwt>
<totfact> 0.75879977E+07</totfact>
</mgrwt>
</event>
<event>
 4    1  0.7499963E+004  0.2192983E+02  0.7546771E-02  0.1709468E+00
         21   -1    0    0  501  502  0.00000000000E+00  0.00000000000E+00  0.58385357446E+01  0.58385357446E+01  0.00000000000E+00 0.  1.
         21   -1    0    0  502  503 -0.00000000000E+00 -0.00000000000E+00 -0.85122064729E+02  0.85122064729E+02  0.00000000000E+00 0.  1.
          4    1    1    2  501    0 -0.10764697884E+02  0.19105982002E+02 -0.47820215102E+02  0.52608841854E+02  0.00000000000E+00 0.  1.
         -4    1    1    2    0  503  0.10764697884E+02 -0.19105982002E+02 -0.31463313882E+02  0.38351758620E+02  0.00000000000E+00 0. -1.
<mgrwt>
<rscale>  2 0.21929826E+02</rscale>
<asrwt>0</asrwt>
<pdfrwt beam="1">  1       21 0.89823630E-03 0.21929826E+02</pdfrwt>
<pdfrwt beam="2">  1       21 0.13095702E-01 0.21929826E+02</pdfrwt>
<totfact> 0.14737581E+08</totfact>
</mgrwt>
</event>
<event>
 4    1  0.7499963E+004  0.2462028E+02  0.7546771E-02  0.1666517E+00
         21   -1    0    0  503  502  0.00000000000E+00  0.00000000000E+00  0.56893004668E+02  0.56893004668E+02  0.00000000000E+00 0.  1.
         21   -1    0    0  501  503 -0.00000000000E+00 -0.00000000000E+00 -0.17722863243E+02  0.17722863243E+02  0.00000000000E+00 0.  1.
          3    1    1    2  501    0  0.18566687535E+02  0.16168987792E+02  0.43146316915E+02  0.49676581158E+02  0.00000000000E+00 0.  1.
         -3    1    1    2    0  502 -0.18566687535E+02 -0.16168987792E+02 -0.39761754904E+01  0.24939286753E+02  0.00000000000E+00 0. -1.
<mgrwt>
<rscale>  2 0.24620277E+02</rscale>
<asrwt>0</asrwt>
<pdfrwt beam="1">  1       21 0.87527699E-02 0.24620277E+02</pdfrwt>
<pdfrwt beam="2">  1       21 0.27265944E-02 0.24620277E+02</pdfrwt>
<totfact> 0.54788351E+07</totfact>
</mgrwt>
</event>
<event>
 4    1  0.7499963E+004  0.2123856E+02  0.7546771E-02  0.1721763E+00
         21   -1    0    0  501  502  0.00000000000E+00  0.00000000000E+00  0.48473489836E+01  0.48473489836E+01  0.00000000000E+00 0. -1.
         21   -1    0    0  502  503 -0.00000000000E+00 -0.00000000000E+00 -0.10025025809E+03  0.10025025809E+03  0.00000000000E+00 0. -1.
          3    1    1    2  501    0  0.17286616266E+02  0.12338937974E+02 -0.33624677953E+02  0.39770535069E+02  0.00000000000E+00 0.  1.
         -3    1    1    2    0  503 -0.17286616266E+02 -0.12338937974E+02 -0.61778231157E+02  0.65327072008E+02  0.00000000000E+00 0. -1.
<mgrwt>
<rscale>  2 0.21238561E+02</rscale>
<asrwt>0</asrwt>
<pdfrwt beam="1">  1       21 0.74574594E-03 0.21238561E+02</pdfrwt>
<pdfrwt beam="2">  1       21 0.15423118E-01 0.21238561E+02</pdfrwt>
<totfact> 0.14606554E+08</totfact>
</mgrwt>
</event>
<event>
 4    1  0.7499963E+004  0.2438750E+02  0.7546771E-02  0.1669958E+00
         21   -1    0    0  503  502  0.00000000000E+00  0.00000000000E+00  0.33634057283E+02  0.33634057283E+02  0.00000000000E+00 0.  1.
         21   -1    0    0  501  503 -0.00000000000E+00 -0.00000000000E+00 -0.19214869282E+02  0.19214869282E+02  0.00000000000E+00 0.  1.
          2    1    1    2  501    0  0.24072070566E+02 -0.39096972336E+01 -0.25148005767E+00  0.24388799807E+02  0.00000000000E+00 0. -1.
         -2    1    1    2    0  502 -0.24072070566E+02  0.39096972336E+01  0.14670668059E+02  0.28460126758E+02  0.00000000000E+00 0.  1.
<mgrwt>
<rscale>  2 0.24387503E+02</rscale>
<asrwt>0</asrwt>
<pdfrwt beam="1">  1       21 0.51744704E-02 0.24387503E+02</pdfrwt>
<pdfrwt beam="2">  1       21 0.29561337E-02 0.24387503E+02</pdfrwt>
<totfact> 0.11295248E+08</totfact>
</mgrwt>
</event>
<event>
 4    1  0.7499963E+004  0.2762055E+02  0.7546771E-02  0.1625985E+00
         21   -1    0    0  503  502  0.00000000000E+00  0.00000000000E+00  0.10443880172E+03  0.10443880172E+03  0.00000000000E+00 0. -1.
         21   -1    0    0  501  503 -0.00000000000E+00 -0.00000000000E+00 -0.88266544764E+01  0.88266544764E+01  0.00000000000E+00 0. -1.
          1    1    1    2  501    0 -0.21888970387E+02 -0.16845408027E+02  0.71322391398E+02  0.76483843464E+02  0.00000000000E+00 0. -1.
         -1    1    1    2    0  502  0.21888970387E+02  0.16845408027E+02  0.24289755846E+02  0.36781612733E+02  0.00000000000E+00 0.  1.
<mgrwt>
<rscale>  2 0.27620550E+02</rscale>
<asrwt>0</asrwt>
<pdfrwt beam="1">  1       21 0.16067507E-01 0.27620550E+02</pdfrwt>
<pdfrwt beam="2">  1       21 0.13579469E-02 0.27620550E+02</pdfrwt>
<totfact> 0.59269741E+07</totfact>
</mgrwt>
</event>
<event>
 4    1  0.7499963E+004  0.2066709E+02  0.7546771E-02  0.1732378E+00
         21   -1    0    0  503  502  0.00000000000E+00  0.00000000000E+00  0.20733421132E+03  0.20733421132E+03  0.00000000000E+00 0. -1.
         21   -1    0    0  501  503 -0.00000000000E+00 -0.00000000000E+00 -0.21611834416E+01  0.21611834416E+01  0.00000000000E+00 0. -1.
          4    1    1    2  501    0 -0.99577339676E+00 -0.20643091640E+02  0.79932615782E+02  0.82561200711E+02  0.00000000000E+00 0. -1.
         -4    1    1    2    0  502  0.99577339676E+00  0.20643091640E+02  0.12524041209E+03  0.12693419405E+03  0.00000000000E+00 0.  1.
<mgrwt>
<rscale>  2 0.20667095E+02</rscale>
<asrwt>0</asrwt>
<pdfrwt beam="1">  1       21 0.31897555E-01 0.20667095E+02</pdfrwt>
<pdfrwt beam="2">  1       21 0.33248992E-03 0.20667095E+02</pdfrwt>
<totfact> 0.13253272E+08</totfact>
</mgrwt>
</event>
<event>
 4    1  0.7499963E+004  0.2002705E+02  0.7546771E-02  0.1744791E+00
         21   -1    0    0  503  502  0.00000000000E+00  0.00000000000E+00  0.42119490272E+01  0.42119490272E+01  0.00000000000E+00 0. -1.
         21   -1    0    0  501  503 -0.00000000000E+00 -0.00000000000E+00 -0.98908450193E+02  0.98908450193E+02  0.00000000000E+00 0. -1.
          1    1    1    2  501    0 -0.14843166651E+02  0.13444823827E+02 -0.57298289119E+02  0.60697420208E+02  0.00000000000E+00 0. -1.
         -1    1    1    2    0  502  0.14843166651E+02 -0.13444823827E+02 -0.37398212047E+02  0.42422979012E+02  0.00000000000E+00 0.  1.
<mgrwt>
<rscale>  2 0.20027054E+02</rscale>
<asrwt>0</asrwt>
<pdfrwt beam="1">  1       21 0.64799217E-03 0.20027054E+02</pdfrwt>
<pdfrwt beam="2">  1       21 0.15216684E-01 0.20027054E+02</pdfrwt>
<totfact> 0.18072754E+08</totfact>
</mgrwt>
</event>
<event>
 4    1  0.7499963E+004  0.2490960E+02  0.7546771E-02  0.1662304E+00
         21   -1    0    0  501  502  0.00000000000E+00  0.00000000000E+00  0.21513168262E+01  0.21513168262E+01  0.00000000000E+00 0. -1.
         21   -1    0    0  502  503 -0.00000000000E+00 -0.00000000000E+00 -0.29017173868E+03  0.29017173868E+03  0.00000000000E+00 0. -1.
          1    1    1    2  501    0 -0.24598500548E+02 -0.39245487728E+01 -0.15535828771E+03  0.15734257489E+03  0.00000000000E+00 0.  1.
         -1    1    1    2    0  503  0.24598500548E+02  0.39245487728E+01 -0.13266213414E+03  0.13498048061E+03  0.00000000000E+00 0. -1.
<mgrwt>
<rscale>  2 0.24909603E+02</rscale>
<asrwt>0</asrwt>
<pdfrwt beam="1">  1       21 0.33097198E-03 0.24909603E+02</pdfrwt>
<pdfrwt beam="2">  1       21 0.44641784E-01 0.24909603E+02</pdfrwt>
<totfact> 0.74780977E+07</totfact>
</mgrwt>
</event>
<event>
 4    1  0.7499963E+004  0.3268292E+02  0.7546771E-02  0.1570195E+00
         21   -1    0    0  503  502  0.00000000000E+00  0.00000000000E+00  0.15325010986E+01  0.15325010986E+01  0.00000000000E+00 0. -1.
         21   -1    0    0  501  503 -0.00000000000E+00 -0.00000000000E+00 -0.77189129558E+03  0.77189129558E+03  0.00000000000E+00 0. -1.
          2    1    1    2  501    0 -0.30764654245E+01  0.32537800837E+02 -0.50562406050E+03  0.50667925128E+03  0.00000000000E+00 0.  1.
         -2    1    1    2    0  502  0.30764654245E+01 -0.32537800837E+02 -0.26473473398E+03  0.26674454540E+03  0.00000000000E+00 0. -1.
<mgrwt>
<rscale>  2 0.32682918E+02</rscale>
<asrwt>0</asrwt>
<pdfrwt beam="1">  1       21 0.23576882E-03 0.32682918E+02</pdfrwt>
<pdfrwt beam="2">  1       21 0.11875280E+00 0.32682918E+02</pdfrwt>
<totfact> 0.16718511E+07</totfact>
</mgrwt>
</event>
<event>
 4    1  0.7499963E+004  0.2208278E+02  0.7546771E-02  0.1706824E+00
         21   -1    0    0  503  502  0.00000000000E+00  0.00000000000E+00  0.26064522550E+02  0.26064522550E+02  0.00000000000E+00 0. -1.
         21   -1    0    0  501  503 -0.00000000000E+00 -0.00000000000E+00 -0.21063969982E+02  0.21063969982E+02  0.00000000000E+00 0. -1.
          3    1    1    2  501    0  0.16740906938E+02 -0.14401080769E+02  0.10378857856E+02  0.24400200467E+02  0.00000000000E+00 0.  1.
         -3    1    1    2    0  502 -0.16740906938E+02  0.14401080769E+02 -0.53783052874E+01  0.22728292065E+02  0.00000000000E+00 0. -1.
<mgrwt>
<rscale>  2 0.22082778E+02</rscale>
<asrwt>0</asrwt>
<pdfrwt beam="1">  1       21 0.40099266E-02 0.22082778E+02</pdfrwt>
<pdfrwt beam="2">  1       21 0.32406108E-02 0.22082778E+02</pdfrwt>
<totfact> 0.14236727E+08</totfact>
</mgrwt>
</event>
<event>
 4    1  0.7499963E+004  0.2529839E+02  0.7546771E-02  0.1656753E+00
         21   -1    0    0  501  502  0.00000000000E+00  0.00000000000E+00  0.17724789119E+03  0.17724789119E+03  0.00000000000E+00 0.  1.
         21   -1    0    0  502  503 -0.00000000000E+00 -0.00000000000E+00 -0.46441388352E+01  0.46441388352E+01  0.00000000000E+00 0.  1.
          3    1    1    2  501    0  0.13291428117E+01  0.25263448720E+02  0.43402562236E+02  0.50237345377E+02  0.00000000000E+00 0. -1.
         -3    1    1    2    0  503 -0.13291428117E+01 -0.25263448720E+02  0.12920119012E+03  0.13165468465E+03  0.00000000000E+00 0.  1.
<mgrwt>
<rscale>  2 0.25298389E+02</rscale>
<asrwt>0</asrwt>
<pdfrwt beam="1">  1       21 0.27268901E-01 0.25298389E+02</pdfrwt>
<pdfrwt beam="2">  1       21 0.71448303E-03 0.25298389E+02</pdfrwt>
<totfact> 0.60189269E+07</totfact>
</mgrwt>
</event>
<event>
 4    1  0.7499963E+004  0.2138207E+02  0.7546771E-02  0.1719163E+00
         21   -1    0    0  501  502  0.00000000000E+00  0.00000000000E+00  0.26394430552E+00  0.26394430552E+00  0.00000000000E+00 0. -1.
         21   -1    0    0  502  503 -0.00000000000E+00 -0.00000000000E+00 -0.17397255748E+04  0.17397255748E+04  0.00000000000E+00 0. -1.
          4    1    1    2  501    0 -0.13405096806E+02 -0.16658215123E+02 -0.81234457512E+03  0.81262592961E+03  0.00000000000E+00 0.  1.
         -4    1    1    2    0  503  0.13405096806E+02  0.16658215123E+02 -0.92711705539E+03  0.92736358950E+03  0.00000000000E+00 0. -1.
<mgrwt>
<rscale>  2 0.21382066E+02</rscale>
<asrwt>0</asrwt>
<pdfrwt beam="1">  1       21 0.40605895E-04 0.21382066E+02</pdfrwt>
<pdfrwt beam="2">  1       21 0.26765616E+00 0.21382066E+02</pdfrwt>
<totfact> 0.24742282E+07</totfact>
</mgrwt>
</event>
<event>
 4    1  0.7499963E+004  0.2517533E+02  0.7546771E-02  0.1658496E+00
         21   -1    0    0  503  502  0.00000000000E+00  0.00000000000E+00  0.13045526241E+03  0.13045526241E+03  0.00000000000E+00 0.  1.
         21   -1    0    0  501  503 -0.00000000000E+00 -0.00000000000E+00 -0.49809594518E+01  0.49809594518E+01  0.00000000000E+00 0.  1.
          2    1    1    2  501    0  0.24107899133E+02  0.72530177131E+01  0.52112521753E+02  0.57874968596E+02  0.00000000000E+00 0.  1.
         -2    1    1    2    0  502 -0.24107899133E+02 -0.72530177131E+01  0.73361781208E+02  0.77561253269E+02  0.00000000000E+00 0. -1.
<mgrwt>
<rscale>  2 0.25175327E+02</rscale>
<asrwt>0</asrwt>
<pdfrwt beam="1">  1       21 0.20070038E-01 0.25175327E+02</pdfrwt>
<pdfrwt beam="2">  1       21 0.76630155E-03 0.25175327E+02</pdfrwt>
<totfact> 0.93392702E+07</totfact>
</mgrwt>
</event>
<event>
 4    1  0.7499963E+004  0.2311489E+02  0.7546771E-02  0.1689655E+00
         21   -1    0    0  503  502  0.00000000000E+00  0.00000000000E+00  0.11379018959E+03  0.11379018959E+03  0.00000000000E+00 0. -1.
         21   -1    0    0  501  503 -0.00000000000E+00 -0.00000000000E+00 -0.49349048992E+01  0.49349048992E+01  0.00000000000E+00 0. -1.
          2    1    1    2  501    0 -0.20950872198E+02 -0.97651955308E+01  0.41351805128E+02  0.47373725597E+02  0.00000000000E+00 0.  1.
         -2    1    1    2    0  502  0.20950872198E+02  0.97651955308E+01  0.67503479559E+02  0.71351368889E+02  0.00000000000E+00 0. -1.
<mgrwt>
<rscale>  2 0.23114889E+02</rscale>
<asrwt>0</asrwt>
<pdfrwt beam="1">  1       21 0.17506181E-01 0.23114889E+02</pdfrwt>
<pdfrwt beam="2">  1       21 0.75921623E-03 0.23114889E+02</pdfrwt>
<totfact> 0.11734820E+08</totfact>
</mgrwt>
</event>
<event>
 4    1  0.7499963E+004  0.2481072E+02  0.7546771E-02  0.1663736E+00
         21   -1    0    0  503  502  0.00000000000E+00  0.00000000000E+00  0.10991662524E+01  0.10991662524E+01  0.00000000000E+00 0.  1.
         21   -1    0    0  501  503 -0.00000000000E+00 -0.00000000000E+00 -0.56646796130E+03  0.56646796130E+03  0.00000000000E+00 0.  1.
          4    1    1    2  501    0 -0.20408140091E+02 -0.14109560169E+02 -0.25244341613E+03  0.25365971343E+03  0.00000000000E+00 0. -1.
         -4    1    1    2    0  502  0.20408140091E+02  0.14109560169E+02 -0.31292537892E+03  0.31390741412E+03  0.00000000000E+00 0.  1.
<mgrwt>
<rscale>  2 0.24810721E+02</rscale>
<asrwt>0</asrwt>
<pdfrwt beam="1">  1       21 0.16910195E-03 0.24810721E+02</pdfrwt>
<pdfrwt beam="2">  1       21 0.87149202E-01 0.24810721E+02</pdfrwt>
<totfact> 0.51269972E+07</totfact>
</mgrwt>
</event>
<event>
 4    1  0.7499963E+004  0.2342498E+02  0.7546771E-02  0.1684713E+00
         21   -1    0    0  501  502  0.00000000000E+00  0.00000000000E+00  0.33072651143E+01  0.33072651143E+01  0.00000000000E+00 0. -1.
         21   -1    0    0  502  503 -0.00000000000E+00 -0.00000000000E+00 -0.18886974988E+03  0.18886974988E+03  0.00000000000E+00 0. -1.
          4    1    1    2  501    0 -0.20792523166E+02 -0.10788906051E+02 -0.12627881267E+03  0.12843312674E+03  0.00000000000E+00 0.  1.
         -4    1    1    2    0  503  0.20792523166E+02  0.10788906051E+02 -0.59283672096E+02  0.63743888261E+02  0.00000000000E+00 0. -1.
<mgrwt>
<rscale>  2 0.23424976E+02</rscale>
<asrwt>0</asrwt>
<pdfrwt beam="1">  1       21 0.50880993E-03 0.23424976E+02</pdfrwt>
<pdfrwt beam="2">  1       21 0.29056890E-01 0.23424976E+02</pdfrwt>
<totfact> 0.87122903E+07</totfact>
</mgrwt>
</event>
<event>
 4    1  0.7499963E+004  0.2021708E+02  0.7546771E-02  0.1741045E+00
         21   -1    0    0  503  502  0.00000000000E+00  0.00000000000E+00  0.13971028594E+02  0.13971028594E+02  0.00000000000E+00 0. -1.
         21   -1    0    0  501  503 -0.00000000000E+00 -0.00000000000E+00 -0.46800197435E+02  0.46800197435E+02  0.00000000000E+00 0. -1.
          5    1    1    2  501    0 -0.20214566327E+02  0.31909338115E+00  0.21898357767E+01  0.20335336070E+02  0.00000000000E+00 0.  1.
         -5    1    1    2    0  502  0.20214566327E+02 -0.31909338115E+00 -0.35019004617E+02  0.40435889958E+02  0.00000000000E+00 0. -1.
<mgrwt>
<rscale>  2 0.20217085E+02</rscale>
<asrwt>0</asrwt>
<pdfrwt beam="1">  1       21 0.21493890E-02 0.20217085E+02</pdfrwt>
<pdfrwt beam="2">  1       21 0.72000304E-02 0.20217085E+02</pdfrwt>
<totfact> 0.10292450E+08</totfact>
</mgrwt>
</event>
<event>
 4    1  0.7499963E+004  0.2863273E+02  0.7546771E-02  0.1613713E+00
         21   -1    0    0  503  502  0.00000000000E+00  0.00000000000E+00  0.42345199843E+01  0.42345199843E+01  0.00000000000E+00 0. -1.
         21   -1    0    0  501  503 -0.00000000000E+00 -0.00000000000E+00 -0.19463800101E+03  0.19463800101E+03  0.00000000000E+00 0. -1.
          3    1    1    2  501    0 -0.80713360683E+00  0.28621350603E+02 -0.87965093126E+02  0.92507787692E+02  0.00000000000E+00 0.  1.
         -3    1    1    2    0  502  0.80713360683E+00 -0.28621350603E+02 -0.10243838790E+03  0.10636473331E+03  0.00000000000E+00 0. -1.
<mgrwt>
<rscale>  2 0.28632729E+02</rscale>
<asrwt>0</asrwt>
<pdfrwt beam="1">  1       21 0.65146457E-03 0.28632729E+02</pdfrwt>
<pdfrwt beam="2">  1       21 0.29944310E-01 0.28632729E+02</pdfrwt>
<totfact> 0.59949001E+07</totfact>
</mgrwt>
</event>
<event>
 4    1  0.7499963E+004  0.3527229E+02  0.7546771E-02  0.1546196E+00
         21   -1    0    0  501  502  0.00000000000E+00  0.00000000000E+00  0.60270579228E+01  0.60270579228E+01  0.00000000000E+00 0.  1.
         21   -1    0    0  502  503 -0.00000000000E+00 -0.00000000000E+00 -0.30772985646E+03  0.30772985646E+03  0.00000000000E+00 0.  1.
          1    1    1    2  501    0  0.10408588841E+02 -0.33701573554E+02 -0.60840757857E+02  0.70325902755E+02  0.00000000000E+00 0.  1.
         -1    1    1    2    0  503 -0.10408588841E+02  0.33701573554E+02 -0.24086204068E+03  0.24343101162E+03  0.00000000000E+00 0. -1.
<mgrwt>
<rscale>  2 0.35272295E+02</rscale>
<asrwt>0</asrwt>
<pdfrwt beam="1">  1       21 0.92723950E-03 0.35272295E+02</pdfrwt>
<pdfrwt beam="2">  1       21 0.47343064E-01 0.35272295E+02</pdfrwt>
<totfact> 0.15354888E+07</totfact>
</mgrwt>
</event>
<event>
 4    1  0.7499963E+004  0.3185771E+02  0.7546771E-02  0.1578418E+00
         21   -1    0    0  501  502  0.00000000000E+00  0.00000000000E+00  0.18837458337E+04  0.18837458337E+04  0.00000000000E+00 0. -1.
         21   -1    0    0  502  503 -0.00000000000E+00 -0.00000000000E+00 -0.53919178897E+00  0.53919178897E+00  0.00000000000E+00 0. -1.
          2    1    1    2  501    0 -0.25159651890E+01 -0.31758201649E+02  0.96782588519E+03  0.96835006970E+03  0.00000000000E+00 0.  1.
         -2    1    1    2    0  503  0.25159651890E+01  0.31758201649E+02  0.91538075670E+03  0.91593495576E+03  0.00000000000E+00 0. -1.
<mgrwt>
<rscale>  2 0.31857706E+02</rscale>
<asrwt>0</asrwt>
<pdfrwt beam="1">  1       21 0.28980178E+00 0.31857706E+02</pdfrwt>
<pdfrwt beam="2">  1       21 0.82954091E-04 0.31857706E+02</pdfrwt>
<totfact> 0.71414373E+06</totfact>
</mgrwt>
</event>
<event>
 4    1  0.7499963E+004  0.3193393E+02  0.7546771E-02  0.1577645E+00
         21   -1    0    0  501  502  0.00000000000E+00  0.00000000000E+00  0.52269205802E+02  0.52269205802E+02  0.00000000000E+00 0. -1.
         21   -1    0    0  502  503 -0.00000000000E+00 -0.00000000000E+00 -0.22268996354E+02  0.22268996354E+02  0.00000000000E+00 0. -1.
          2    1    1    2  501    0  0.28025358236E+02 -0.15308658893E+02  0.28118141204E+02  0.42548861397E+02  0.00000000000E+00 0.  1.
         -2    1    1    2    0  503 -0.28025358236E+02  0.15308658893E+02  0.18820682435E+01  0.31989340760E+02  0.00000000000E+00 0. -1.
<mgrwt>
<rscale>  2 0.31933928E+02</rscale>
<asrwt>0</asrwt>
<pdfrwt beam="1">  1       21 0.80414163E-02 0.31933928E+02</pdfrwt>
<pdfrwt beam="2">  1       21 0.34259994E-02 0.31933928E+02</pdfrwt>
<totfact> 0.46737076E+07</totfact>
</mgrwt>
</event>
<event>
 4    1  0.7499963E+004  0.2038266E+02  0.7546771E-02  0.1737824E+00
         21   -1    0    0  503  502  0.00000000000E+00  0.00000000000E+00  0.40018545696E+02  0.40018545696E+02  0.00000000000E+00 0.  1.
         21   -1    0    0  501  503 -0.00000000000E+00 -0.00000000000E+00 -0.13269596948E+02  0.13269596948E+02  0.00000000000E+00 0.  1.
          1    1    1    2  501    0 -0.35177923911E+01 -0.20076796599E+02  0.25804654757E+02  0.32883625592E+02  0.00000000000E+00 0. -1.
         -1    1    1    2    0  502  0.35177923911E+01  0.20076796599E+02  0.94429399182E+00  0.20404517052E+02  0.00000000000E+00 0.  1.
<mgrwt>
<rscale>  2 0.20382655E+02</rscale>
<asrwt>0</asrwt>
<pdfrwt beam="1">  1       21 0.61566993E-02 0.20382655E+02</pdfrwt>
<pdfrwt beam="2">  1       21 0.20414765E-02 0.20382655E+02</pdfrwt>
<totfact> 0.14356951E+08</totfact>
</mgrwt>
</event>
<event>
 4    1  0.7499963E+004  0.2079042E+02  0.7546771E-02  0.1730052E+00
         21   -1    0    0  503  502  0.00000000000E+00  0.00000000000E+00  0.73630861479E+02  0.73630861479E+02  0.00000000000E+00 0.  1.
         21   -1    0    0  501  503 -0.00000000000E+00 -0.00000000000E+00 -0.59721150034E+01  0.59721150034E+01  0.00000000000E+00 0.  1.
          5    1    1    2  501    0 -0.68549896250E+01  0.19627805319E+02  0.28634723241E+02  0.35386282646E+02  0.00000000000E+00 0. -1.
         -5    1    1    2    0  502  0.68549896250E+01 -0.19627805319E+02  0.39024023234E+02  0.44216693836E+02  0.00000000000E+00 0.  1.
<mgrwt>
<rscale>  2 0.20790421E+02</rscale>
<asrwt>0</asrwt>
<pdfrwt beam="1">  1       21 0.11327824E-01 0.20790421E+02</pdfrwt>
<pdfrwt beam="2">  1       21 0.91878697E-03 0.20790421E+02</pdfrwt>
<totfact> 0.17861239E+08</totfact>
</mgrwt>
</event>
<event>
 4    1  0.7499963E+004  0.3748707E+02  0.7546771E-02  0.1527562E+00
         21   -1    0    0  503  502  0.00000000000E+00  0.00000000000E+00  0.30769836437E+01  0.30769836437E+01  0.00000000000E+00 0. -1.
         21   -1    0    0  501  503 -0.00000000000E+00 -0.00000000000E+00 -0.45736578104E+03  0.45736578104E+03  0.00000000000E+00 0. -1.
          1    1    1    2  501    0  0.21792761854E+02 -0.30501739360E+02 -0.21840825791E+03  0.22160200292E+03  0.00000000000E+00 0.  1.
         -1    1    1    2    0  502 -0.21792761854E+02  0.30501739360E+02 -0.23588053948E+03  0.23884076176E+03  0.00000000000E+00 0. -1.
<mgrwt>
<rscale>  2 0.37487072E+02</rscale>
<asrwt>0</asrwt>
<pdfrwt beam="1">  1       21 0.47338217E-03 0.37487072E+02</pdfrwt>
<pdfrwt beam="2">  1       21 0.70363956E-01 0.37487072E+02</pdfrwt>
<totfact> 0.19128449E+07</totfact>
</mgrwt>
</event>
<event>
 4    1  0.7499963E+004  0.2013609E+02  0.7546771E-02  0.1742635E+00
         21   -1    0    0  503  502  0.00000000000E+00  0.00000000000E+00  0.50358201351E+01  0.50358201351E+01  0.00000000000E+00 0.  1.
         21   -1    0    0  501  503 -0.00000000000E+00 -0.00000000000E+00 -0.80636119545E+02  0.80636119545E+02  0.00000000000E+00 0.  1.
          5    1    1    2  501    0 -0.18219898603E+02  0.85730659246E+01 -0.39456080556E+02  0.44297228551E+02  0.00000000000E+00 0. -1.
         -5    1    1    2    0  502  0.18219898603E+02 -0.85730659246E+01 -0.36144218854E+02  0.41374711129E+02  0.00000000000E+00 0.  1.
<mgrwt>
<rscale>  2 0.20136091E+02</rscale>
<asrwt>0</asrwt>
<pdfrwt beam="1">  1       21 0.77474154E-03 0.20136091E+02</pdfrwt>
<pdfrwt beam="2">  1       21 0.12405557E-01 0.20136091E+02</pdfrwt>
<totfact> 0.19590994E+08</totfact>
</mgrwt>
</event>
<event>
 4    1  0.7499963E+004  0.2412016E+02  0.7546771E-02  0.1673971E+00
         21   -1    0    0  501  502  0.00000000000E+00  0.00000000000E+00  0.46583261710E+02  0.46583261710E+02  0.00000000000E+00 0. -1.
         21   -1    0    0  502  503 -0.00000000000E+00 -0.00000000000E+00 -0.13650846006E+02  0.13650846006E+02  0.00000000000E+00 0. -1.
          1    1    1    2  501    0 -0.49764401749E+00 -0.24115021066E+02  0.25252240299E+02  0.34920732104E+02  0.00000000000E+00 0. -1.
         -1    1    1    2    0  503  0.49764401749E+00  0.24115021066E+02  0.76801754054E+01  0.25313375612E+02  0.00000000000E+00 0.  1.
<mgrwt>
<rscale>  2 0.24120155E+02</rscale>
<asrwt>0</asrwt>
<pdfrwt beam="1">  1       21 0.71666556E-02 0.24120155E+02</pdfrwt>
<pdfrwt beam="2">  1       21 0.21001302E-02 0.24120155E+02</pdfrwt>
<totfact> 0.11315571E+08</totfact>
</mgrwt>
</event>
<event>
 4    1  0.7499963E+004  0.2294025E+02  0.7546771E-02  0.1692481E+00
         21   -1    0    0  503  502  0.00000000000E+00  0.00000000000E+00  0.54291883389E+03  0.54291883389E+03  0.00000000000E+00 0. -1.
         21   -1    0    0  501  503 -0.00000000000E+00 -0.00000000000E+00 -0.96974349827E+00  0.96974349827E+00  0.00000000000E+00 0. -1.
          3    1    1    2  501    0  0.15552423346E+02 -0.16863480346E+02  0.26520273503E+03  0.26619306059E+03  0.00000000000E+00 0. -1.
         -3    1    1    2    0  502 -0.15552423346E+02  0.16863480346E+02  0.27674635536E+03  0.27769551679E+03  0.00000000000E+00 0.  1.
<mgrwt>
<rscale>  2 0.22940245E+02</rscale>
<asrwt>0</asrwt>
<pdfrwt beam="1">  1       21 0.83525732E-01 0.22940245E+02</pdfrwt>
<pdfrwt beam="2">  1       21 0.14919174E-03 0.22940245E+02</pdfrwt>
<totfact> 0.66024611E+07</totfact>
</mgrwt>
</event>
<event>
 4    1  0.7499963E+004  0.2247926E+02  0.7546771E-02  0.1700093E+00
         21   -1    0    0  501  502  0.00000000000E+00  0.00000000000E+00  0.51974583074E+02  0.51974583074E+02  0.00000000000E+00 0.  1.
         21   -1    0    0  502  503 -0.00000000000E+00 -0.00000000000E+00 -0.14885897379E+02  0.14885897379E+02  0.00000000000E+00 0.  1.
          1    1    1    2  501    0  0.21943447455E+02  0.48787632573E+01 -0.11446883571E+01  0.22508387960E+02  0.00000000000E+00 0.  1.
         -1    1    1    2    0  503 -0.21943447455E+02 -0.48787632573E+01  0.38233374052E+02  0.44352092493E+02  0.00000000000E+00 0. -1.
<mgrwt>
<rscale>  2 0.22479262E+02</rscale>
<asrwt>0</asrwt>
<pdfrwt beam="1">  1       21 0.79960896E-02 0.22479262E+02</pdfrwt>
<pdfrwt beam="2">  1       21 0.22901381E-02 0.22479262E+02</pdfrwt>
<totfact> 0.81214674E+07</totfact>
</mgrwt>
</event>
<event>
 4    1  0.7499963E+004  0.2803023E+02  0.7546771E-02  0.1620941E+00
         21   -1    0    0  501  502  0.00000000000E+00  0.00000000000E+00  0.50224346005E+00  0.50224346005E+00  0.00000000000E+00 0.  1.
         21   -1    0    0  502  503 -0.00000000000E+00 -0.00000000000E+00 -0.15671879823E+04  0.15671879823E+04  0.00000000000E+00 0.  1.
          4    1    1    2  501    0 -0.25843647064E+02 -0.10853553237E+02 -0.75009411587E+03  0.75061766325E+03  0.00000000000E+00 0. -1.
         -4    1    1    2    0  503  0.25843647064E+02  0.10853553237E+02 -0.81659162294E+03  0.81707256249E+03  0.00000000000E+00 0.  1.
<mgrwt>
<rscale>  2 0.28030229E+02</rscale>
<asrwt>0</asrwt>
<pdfrwt beam="1">  1       21 0.77267747E-04 0.28030229E+02</pdfrwt>
<pdfrwt beam="2">  1       21 0.24110733E+00 0.28030229E+02</pdfrwt>
<totfact> 0.13835723E+07</totfact>
</mgrwt>
</event>
<event>
 4    1  0.7499963E+004  0.4093090E+02  0.7546771E-02  0.1501471E+00
         21   -1    0    0  501  502  0.00000000000E+00  0.00000000000E+00  0.26270778936E+01  0.26270778936E+01  0.00000000000E+00 0. -1.
         21   -1    0    0  502  503 -0.00000000000E+00 -0.00000000000E+00 -0.64424452518E+03  0.64424452518E+03  0.00000000000E+00 0. -1.
          3    1    1    2  501    0 -0.21525770800E+02 -0.34813496862E+02 -0.28825810505E+03  0.29114957238E+03  0.00000000000E+00 0. -1.
         -3    1    1    2    0  503  0.21525770800E+02  0.34813496862E+02 -0.35335934223E+03  0.35572203069E+03  0.00000000000E+00 0.  1.
<mgrwt>
<rscale>  2 0.40930898E+02</rscale>
<asrwt>0</asrwt>
<pdfrwt beam="1">  1       21 0.40416586E-03 0.40930898E+02</pdfrwt>
<pdfrwt beam="2">  1       21 0.99114534E-01 0.40930898E+02</pdfrwt>
<totfact> 0.11679922E+07</totfact>
</mgrwt>
</event>
<event>
 4    1  0.7499963E+004  0.2470376E+02  0.7546771E-02  0.1665294E+00
         21   -1    0    0  501  502  0.00000000000E+00  0.00000000000E+00  0.16672323019E+02  0.16672323019E+02  0.00000000000E+00 0. -1.
         21   -1    0    0  502  503 -0.00000000000E+00 -0.00000000000E+00 -0.47926575784E+02  0.47926575784E+02  0.00000000000E+00 0. -1.
          5    1    1    2  501    0 -0.22906424017E+02  0.92504759020E+01  0.72069350736E-01  0.24703861229E+02  0.00000000000E+00 0.  1.
         -5    1    1    2    0  503  0.22906424017E+02 -0.92504759020E+01 -0.31326322116E+02  0.39895037573E+02  0.00000000000E+00 0. -1.
<mgrwt>
<rscale>  2 0.24703756E+02</rscale>
<asrwt>0</asrwt>
<pdfrwt beam="1">  1       21 0.25649728E-02 0.24703756E+02</pdfrwt>
<pdfrwt beam="2">  1       21 0.73733192E-02 0.24703756E+02</pdfrwt>
<totfact> 0.79835283E+07</totfact>
</mgrwt>
</event>
<event>
 4    1  0.7499963E+004  0.2141414E+02  0.7546771E-02  0.1718586E+00
         21   -1    0    0  501  502  0.00000000000E+00  0.00000000000E+00  0.31077234435E+03  0.31077234435E+03  0.00000000000E+00 0. -1.
         21   -1    0    0  502  503 -0.00000000000E+00 -0.00000000000E+00 -0.26216069276E+01  0.26216069276E+01  0.00000000000E+00 0. -1.
          5    1    1    2  501    0 -0.91554087329E+01  0.19358299201E+02  0.25767943414E+03  0.25856770107E+03  0.00000000000E+00 0.  1.
         -5    1    1    2    0  503  0.91554087329E+01 -0.19358299201E+02  0.50471303284E+02  0.54826250211E+02  0.00000000000E+00 0. -1.
<mgrwt>
<rscale>  2 0.21414137E+02</rscale>
<asrwt>0</asrwt>
<pdfrwt beam="1">  1       21 0.47811101E-01 0.21414137E+02</pdfrwt>
<pdfrwt beam="2">  1       21 0.40332439E-03 0.21414137E+02</pdfrwt>
<totfact> 0.47309657E+07</totfact>
</mgrwt>
</event>
<event>
 4    1  0.7499963E+004  0.2503090E+02  0.7546771E-02  0.1660558E+00
         21   -1    0    0  501  502  0.00000000000E+00  0.00000000000E+00  0.59354280251E+01  0.59354280251E+01  0.00000000000E+00 0.  1.
         21   -1    0    0  502  503 -0.00000000000E+00 -0.00000000000E+00 -0.11022735297E+03  0.11022735297E+03  0.00000000000E+00 0.  1.
          1    1    1    2  501    0 -0.78087398846E+01 -0.23781707081E+02 -0.40194799340E+02  0.47351535395E+02  0.00000000000E+00 0.  1.
         -1    1    1    2    0  503  0.78087398846E+01  0.23781707081E+02 -0.64097125606E+02  0.68811245601E+02  0.00000000000E+00 0. -1.
<mgrwt>
<rscale>  2 0.25030901E+02</rscale>
<asrwt>0</asrwt>
<pdfrwt beam="1">  1       21 0.91314288E-03 0.25030901E+02</pdfrwt>
<pdfrwt beam="2">  1       21 0.16958052E-01 0.25030901E+02</pdfrwt>
<totfact> 0.96108029E+07</totfact>
</mgrwt>
</event>
<event>
 4    1  0.7499963E+004  0.2005753E+02  0.7546771E-02  0.1744186E+00
         21   -1    0    0  501  502  0.00000000000E+00  0.00000000000E+00  0.53955869534E+02  0.53955869534E+02  0.00000000000E+00 0.  1.
         21   -1    0    0  502  503 -0.00000000000E+00 -0.00000000000E+00 -0.74638258690E+01  0.74638258690E+01  0.00000000000E+00 0.  1.
          3    1    1    2  501    0 -0.12735248219E+02 -0.15495737564E+02  0.22262827215E+02  0.29965612049E+02  0.00000000000E+00 0.  1.
         -3    1    1    2    0  503  0.12735248219E+02  0.15495737564E+02  0.24229216450E+02  0.31454083354E+02  0.00000000000E+00 0. -1.
<mgrwt>
<rscale>  2 0.20057528E+02</rscale>
<asrwt>0</asrwt>
<pdfrwt beam="1">  1       21 0.83009027E-02 0.20057528E+02</pdfrwt>
<pdfrwt beam="2">  1       21 0.11482809E-02 0.20057528E+02</pdfrwt>
<totfact> 0.21075770E+08</totfact>
</mgrwt>
</event>
<event>
 4    1  0.7499963E+004  0.2832690E+02  0.7546771E-02  0.1617355E+00
         21   -1    0    0  503  502  0.00000000000E+00  0.00000000000E+00  0.32784248803E+02  0.32784248803E+02  0.00000000000E+00 0. -1.
         21   -1    0    0  501  503 -0.00000000000E+00 -0.00000000000E+00 -0.24916250107E+02  0.24916250107E+02  0.00000000000E+00 0. -1.
          2    1    1    2  501    0 -0.70439495301E+01  0.27437130234E+02  0.97214109788E-01  0.28327068168E+02  0.00000000000E+00 0.  1.
         -2    1    1    2    0  502  0.70439495301E+01 -0.27437130234E+02  0.77707845867E+01  0.29373430742E+02  0.00000000000E+00 0. -1.
<mgrwt>
<rscale>  2 0.28326901E+02</rscale>
<asrwt>0</asrwt>
<pdfrwt beam="1">  1       21 0.50437306E-02 0.28326901E+02</pdfrwt>
<pdfrwt beam="2">  1       21 0.38332692E-02 0.28326901E+02</pdfrwt>
<totfact> 0.81342157E+07</totfact>
</mgrwt>
</event>
<event>
 4    1  0.7499963E+004  0.2029545E+02  0.7546771E-02  0.1739516E+00
         21   -1    0    0  501  502  0.00000000000E+00  0.00000000000E+00  0.13041738893E+01  0.13041738893E+01  0.00000000000E+00 0.  1.
         21   -1    0    0  502  503 -0.00000000000E+00 -0.00000000000E+00 -0.32904777245E+03  0.32904777245E+03  0.00000000000E+00 0.  1.
          5    1    1    2  501    0  0.18416364610E+02  0.85289296655E+01 -0.19696944902E+03  0.19801229501E+03  0.00000000000E+00 0.  1.
         -5    1    1    2    0  503 -0.18416364610E+02 -0.85289296655E+01 -0.13077414954E+03  0.13233965133E+03  0.00000000000E+00 0. -1.
<mgrwt>
<rscale>  2 0.20295446E+02</rscale>
<asrwt>0</asrwt>
<pdfrwt beam="1">  1       21 0.20064234E-03 0.20295446E+02</pdfrwt>
<pdfrwt beam="2">  1       21 0.50622683E-01 0.20295446E+02</pdfrwt>
<totfact> 0.11504273E+08</totfact>
</mgrwt>
</event>
<event>
 4    1  0.7499963E+004  0.2146517E+02  0.7546771E-02  0.1717669E+00
         21   -1    0    0  501  502  0.00000000000E+00  0.00000000000E+00  0.21355084720E+03  0.21355084720E+03  0.00000000000E+00 0.  1.
         21   -1    0    0  502  503 -0.00000000000E+00 -0.00000000000E+00 -0.32956966227E+01  0.32956966227E+01  0.00000000000E+00 0.  1.
          2    1    1    2  501    0 -0.54528671284E+01  0.20761015798E+02  0.16884259650E+03  0.17020157440E+03  0.00000000000E+00 0. -1.
         -2    1    1    2    0  503  0.54528671284E+01 -0.20761015798E+02  0.41412554081E+02  0.46644969422E+02  0.00000000000E+00 0.  1.
<mgrwt>
<rscale>  2 0.21465170E+02</rscale>
<asrwt>0</asrwt>
<pdfrwt beam="1">  1       21 0.32853966E-01 0.21465170E+02</pdfrwt>
<pdfrwt beam="2">  1       21 0.50703042E-03 0.21465170E+02</pdfrwt>
<totfact> 0.68420535E+07</totfact>
</mgrwt>
</event>
<event>
 4    1  0.7499963E+004  0.2026223E+02  0.7546771E-02  0.1740163E+00
         21   -1    0    0  503  502  0.00000000000E+00  0.00000000000E+00  0.19485586094E+01  0.19485586094E+01  0.00000000000E+00 0.  1.
         21   -1    0    0  501  503 -0.00000000000E+00 -0.00000000000E+00 -0.21238594259E+03  0.21238594259E+03  0.00000000000E+00 0.  1.
          4    1    1    2  501    0 -0.50251574763E+01  0.19629207650E+02 -0.95665719940E+02  0.97787974579E+02  0.00000000000E+00 0. -1.
         -4    1    1    2    0  502  0.50251574763E+01 -0.19629207650E+02 -0.11477166404E+03  0.11654652662E+03  0.00000000000E+00 0.  1.
<mgrwt>
<rscale>  2 0.20262231E+02</rscale>
<asrwt>0</asrwt>
<pdfrwt beam="1">  1       21 0.29977812E-03 0.20262231E+02</pdfrwt>
<pdfrwt beam="2">  1       21 0.32674774E-01 0.20262231E+02</pdfrwt>
<totfact> 0.14659023E+08</totfact>
</mgrwt>
</event>
<event>
 4    1  0.7499963E+004  0.2616121E+02  0.7546771E-02  0.1644862E+00
         21   -1    0    0  503  502  0.00000000000E+00  0.00000000000E+00  0.35425248827E+02  0.35425248827E+02  0.00000000000E+00 0.  1.
         21   -1    0    0  501  503 -0.00000000000E+00 -0.00000000000E+00 -0.41023496452E+02  0.41023496452E+02  0.00000000000E+00 0.  1.
          4    1    1    2  501    0 -0.25388839104E+02 -0.63099549568E+01 -0.30602074823E+02  0.40260348559E+02  0.00000000000E+00 0. -1.
         -4    1    1    2    0  502  0.25388839104E+02  0.63099549568E+01  0.25003827198E+02  0.36188396720E+02  0.00000000000E+00 0.  1.
<mgrwt>
<rscale>  2 0.26161206E+02</rscale>
<asrwt>0</asrwt>
<pdfrwt beam="1">  1       21 0.54500383E-02 0.26161206E+02</pdfrwt>
<pdfrwt beam="2">  1       21 0.63113072E-02 0.26161206E+02</pdfrwt>
<totfact> 0.31718351E+07</totfact>
</mgrwt>
</event>
<event>
 4    1  0.7499963E+004  0.3259287E+02  0.7546771E-02  0.1571078E+00
         21   -1    0    0  503  502  0.00000000000E+00  0.00000000000E+00  0.34420433713E+03  0.34420433713E+03  0.00000000000E+00 0.  1.
         21   -1    0    0  501  503 -0.00000000000E+00 -0.00000000000E+00 -0.86384141949E+01  0.86384141949E+01  0.00000000000E+00 0.  1.
          3    1    1    2  501    0  0.32063511946E+02 -0.58503040603E+01  0.26344996320E+02  0.41908873607E+02  0.00000000000E+00 0. -1.
         -3    1    1    2    0  502 -0.32063511946E+02  0.58503040603E+01  0.30922092661E+03  0.31093387771E+03  0.00000000000E+00 0.  1.
<mgrwt>
<rscale>  2 0.32592865E+02</rscale>
<asrwt>0</asrwt>
<pdfrwt beam="1">  1       21 0.52954503E-01 0.32592865E+02</pdfrwt>
<pdfrwt beam="2">  1       21 0.13289871E-02 0.32592865E+02</pdfrwt>
<totfact> 0.70254047E+06</totfact>
</mgrwt>
</event>
<event>
 4    1  0.7499963E+004  0.2706115E+02  0.7546771E-02  0.1633048E+00
         21   -1    0    0  501  502  0.00000000000E+00  0.00000000000E+00  0.45269241884E+02  0.45269241884E+02  0.00000000000E+00 0.  1.
         21   -1    0    0  502  503 -0.00000000000E+00 -0.00000000000E+00 -0.19548622194E+02  0.19548622194E+02  0.00000000000E+00 0.  1.
          3    1    1    2  501    0 -0.24340303106E+02 -0.11826058588E+02  0.26320361801E+02  0.37750065726E+02  0.00000000000E+00 0.  1.
         -3    1    1    2    0  503  0.24340303106E+02  0.11826058588E+02 -0.59974211090E+00  0.27067798352E+02  0.00000000000E+00 0. -1.
<mgrwt>
<rscale>  2 0.27061153E+02</rscale>
<asrwt>0</asrwt>
<pdfrwt beam="1">  1       21 0.69644987E-02 0.27061153E+02</pdfrwt>
<pdfrwt beam="2">  1       21 0.30074804E-02 0.27061153E+02</pdfrwt>
<totfact> 0.69947919E+07</totfact>
</mgrwt>
</event>
<event>
 4    1  0.7499963E+004  0.2733869E+02  0.7546771E-02  0.1629518E+00
         21   -1    0    0  501  502  0.00000000000E+00  0.00000000000E+00  0.10030864743E+03  0.10030864743E+03  0.00000000000E+00 0.  1.
         21   -1    0    0  502  503 -0.00000000000E+00 -0.00000000000E+00 -0.75419111538E+01  0.75419111538E+01  0.00000000000E+00 0.  1.
          3    1    1    2  501    0 -0.20709527467E+02 -0.17847117587E+02  0.52302464840E+02  0.59016539736E+02  0.00000000000E+00 0. -1.
         -3    1    1    2    0  503  0.20709527467E+02  0.17847117587E+02  0.40464271441E+02  0.48834018853E+02  0.00000000000E+00 0.  1.
<mgrwt>
<rscale>  2 0.27338693E+02</rscale>
<asrwt>0</asrwt>
<pdfrwt beam="1">  1       21 0.15432099E-01 0.27338693E+02</pdfrwt>
<pdfrwt beam="2">  1       21 0.11602941E-02 0.27338693E+02</pdfrwt>
<totfact> 0.80510220E+07</totfact>
</mgrwt>
</event>
<event>
 4    1  0.7499963E+004  0.2414090E+02  0.7546771E-02  0.1673657E+00
         21   -1    0    0  501  502  0.00000000000E+00  0.00000000000E+00  0.91996741781E+01  0.91996741781E+01  0.00000000000E+00 0.  1.
         21   -1    0    0  502  503 -0.00000000000E+00 -0.00000000000E+00 -0.72978618118E+02  0.72978618118E+02  0.00000000000E+00 0.  1.
          1    1    1    2  501    0  0.16029823219E+01  0.24087618368E+02 -0.46815752432E+02  0.52673499853E+02  0.00000000000E+00 0.  1.
         -1    1    1    2    0  503 -0.16029823219E+01 -0.24087618368E+02 -0.16963191508E+02  0.29504792443E+02  0.00000000000E+00 0. -1.
<mgrwt>
<rscale>  2 0.24140897E+02</rscale>
<asrwt>0</asrwt>
<pdfrwt beam="1">  1       21 0.14153345E-02 0.24140897E+02</pdfrwt>
<pdfrwt beam="2">  1       21 0.11227480E-01 0.24140897E+02</pdfrwt>
<totfact> 0.98834211E+07</totfact>
</mgrwt>
</event>
<event>
 4    1  0.7499963E+004  0.2438701E+02  0.7546771E-02  0.1669966E+00
         21   -1    0    0  503  502  0.00000000000E+00  0.00000000000E+00  0.50298485180E+02  0.50298485180E+02  0.00000000000E+00 0. -1.
         21   -1    0    0  501  503 -0.00000000000E+00 -0.00000000000E+00 -0.14402431637E+02  0.14402431637E+02  0.00000000000E+00 0. -1.
          4    1    1    2  501    0 -0.24374384636E+02 -0.78449743825E+00  0.31636207796E+02  0.39944658044E+02  0.00000000000E+00 0. -1.
         -4    1    1    2    0  502  0.24374384636E+02  0.78449743825E+00  0.42598457476E+01  0.24756258772E+02  0.00000000000E+00 0.  1.
<mgrwt>
<rscale>  2 0.24387006E+02</rscale>
<asrwt>0</asrwt>
<pdfrwt beam="1">  1       21 0.77382284E-02 0.24387006E+02</pdfrwt>
<pdfrwt beam="2">  1       21 0.22157587E-02 0.24387006E+02</pdfrwt>
<totfact> 0.92232970E+07</totfact>
</mgrwt>
</event>
<event>
 4    1  0.7499963E+004  0.2108500E+02  0.7546771E-02  0.1724574E+00
         21   -1    0    0  503  502  0.00000000000E+00  0.00000000000E+00  0.95013435400E+00  0.95013435400E+00  0.00000000000E+00 0.  1.
         21   -1    0    0  501  503 -0.00000000000E+00 -0.00000000000E+00 -0.54006511084E+03  0.54006511084E+03  0.00000000000E+00 0.  1.
          1    1    1    2  501    0  0.20328967544E+02 -0.55955664972E+01 -0.36843334239E+03  0.36903618396E+03  0.00000000000E+00 0. -1.
         -1    1    1    2    0  502 -0.20328967544E+02  0.55955664972E+01 -0.17068163410E+03  0.17197906124E+03  0.00000000000E+00 0.  1.
<mgrwt>
<rscale>  2 0.21085001E+02</rscale>
<asrwt>0</asrwt>
<pdfrwt beam="1">  1       21 0.14617423E-03 0.21085001E+02</pdfrwt>
<pdfrwt beam="2">  1       21 0.83087103E-01 0.21085001E+02</pdfrwt>
<totfact> 0.67374681E+07</totfact>
</mgrwt>
</event>
<event>
 4    1  0.7499963E+004  0.3379306E+02  0.7546771E-02  0.1559587E+00
         21   -1    0    0  501  502  0.00000000000E+00  0.00000000000E+00  0.37991394952E+02  0.37991394952E+02  0.00000000000E+00 0.  1.
         21   -1    0    0  502  503 -0.00000000000E+00 -0.00000000000E+00 -0.32739805890E+02  0.32739805890E+02  0.00000000000E+00 0.  1.
          3    1    1    2  501    0  0.14908905605E+02 -0.30326478252E+02  0.12746307233E+02  0.36117019500E+02  0.00000000000E+00 0.  1.
         -3    1    1    2    0  503 -0.14908905605E+02  0.30326478252E+02 -0.74947181714E+01  0.34614181342E+02  0.00000000000E+00 0. -1.
<mgrwt>
<rscale>  2 0.33793058E+02</rscale>
<asrwt>0</asrwt>
<pdfrwt beam="1">  1       21 0.58448300E-02 0.33793058E+02</pdfrwt>
<pdfrwt beam="2">  1       21 0.50368932E-02 0.33793058E+02</pdfrwt>
<totfact> 0.43084324E+07</totfact>
</mgrwt>
</event>
<event>
 4    1  0.7499963E+004  0.2183877E+02  0.7546771E-02  0.1711055E+00
         21   -1    0    0  501  502  0.00000000000E+00  0.00000000000E+00  0.25482473031E+02  0.25482473031E+02  0.00000000000E+00 0.  1.
         21   -1    0    0  502  503 -0.00000000000E+00 -0.00000000000E+00 -0.21911118672E+02  0.21911118672E+02  0.00000000000E+00 0.  1.
          2    1    1    2  501    0 -0.18617746051E+02  0.11415408097E+02 -0.72632146077E+01  0.23014914652E+02  0.00000000000E+00 0.  1.
         -2    1    1    2    0  503  0.18617746051E+02 -0.11415408097E+02  0.10834568967E+02  0.24378677050E+02  0.00000000000E+00 0. -1.
<mgrwt>
<rscale>  2 0.21838773E+02</rscale>
<asrwt>0</asrwt>
<pdfrwt beam="1">  1       21 0.39203805E-02 0.21838773E+02</pdfrwt>
<pdfrwt beam="2">  1       21 0.33709413E-02 0.21838773E+02</pdfrwt>
<totfact> 0.13824126E+08</totfact>
</mgrwt>
</event>
<event>
 4    1  0.7499963E+004  0.2190657E+02  0.7546771E-02  0.1709873E+00
         21   -1    0    0  501  502  0.00000000000E+00  0.00000000000E+00  0.35128420699E+03  0.35128420699E+03  0.00000000000E+00 0.  1.
         21   -1    0    0  502  503 -0.00000000000E+00 -0.00000000000E+00 -0.18907144508E+01  0.18907144508E+01  0.00000000000E+00 0.  1.
          5    1    1    2  501    0  0.11423063546E+02 -0.18692546139E+02  0.81680839031E+02  0.84567470855E+02  0.00000000000E+00 0. -1.
         -5    1    1    2    0  503 -0.11423063546E+02  0.18692546139E+02  0.26771265351E+03  0.26860745059E+03  0.00000000000E+00 0.  1.
<mgrwt>
<rscale>  2 0.21906567E+02</rscale>
<asrwt>0</asrwt>
<pdfrwt beam="1">  1       21 0.54043672E-01 0.21906567E+02</pdfrwt>
<pdfrwt beam="2">  1       21 0.29087943E-03 0.21906567E+02</pdfrwt>
<totfact> 0.60391840E+07</totfact>
</mgrwt>
</event>
<event>
 4    1  0.7499963E+004  0.2040860E+02  0.7546771E-02  0.1737323E+00
         21   -1    0    0  503  502  0.00000000000E+00  0.00000000000E+00  0.76482556416E+01  0.76482556416E+01  0.00000000000E+00 0. -1.
         21   -1    0    0  501  503 -0.00000000000E+00 -0.00000000000E+00 -0.68801055110E+02  0.68801055110E+02  0.00000000000E+00 0. -1.
          2    1    1    2  501    0  0.20162471294E+02 -0.31600167213E+01 -0.13123708245E+02  0.24264020122E+02  0.00000000000E+00 0.  1.
         -2    1    1    2    0  502 -0.20162471294E+02  0.31600167213E+01 -0.48029091223E+02  0.52185290630E+02  0.00000000000E+00 0. -1.
<mgrwt>
<rscale>  2 0.20408600E+02</rscale>
<asrwt>0</asrwt>
<pdfrwt beam="1">  1       21 0.11766547E-02 0.20408600E+02</pdfrwt>
<pdfrwt beam="2">  1       21 0.10584778E-01 0.20408600E+02</pdfrwt>
<totfact> 0.13719533E+08</totfact>
</mgrwt>
</event>
<event>
 4    1  0.7499963E+004  0.2330493E+02  0.7546771E-02  0.1686615E+00
         21   -1    0    0  501  502  0.00000000000E+00  0.00000000000E+00  0.47138697550E+02  0.47138697550E+02  0.00000000000E+00 0.  1.
         21   -1    0    0  502  503 -0.00000000000E+00 -0.00000000000E+00 -0.11964251573E+02  0.11964251573E+02  0.00000000000E+00 0.  1.
          5    1    1    2  501    0  0.23030317277E+02  0.35670765294E+01  0.11903911001E+02  0.26169116263E+02  0.00000000000E+00 0. -1.
         -5    1    1    2    0  503 -0.23030317277E+02 -0.35670765294E+01  0.23270534975E+02  0.32933832860E+02  0.00000000000E+00 0.  1.
<mgrwt>
<rscale>  2 0.23304925E+02</rscale>
<asrwt>0</asrwt>
<pdfrwt beam="1">  1       21 0.72521072E-02 0.23304925E+02</pdfrwt>
<pdfrwt beam="2">  1       21 0.18406541E-02 0.23304925E+02</pdfrwt>
<totfact> 0.13454266E+08</totfact>
</mgrwt>
</event>
<event>
 4    1  0.7499963E+004  0.2502977E+02  0.7546771E-02  0.1660575E+00
         21   -1    0    0  501  502  0.00000000000E+00  0.00000000000E+00  0.10805867080E+01  0.10805867080E+01  0.00000000000E+00 0.  1.
         21   -1    0    0  502  503 -0.00000000000E+00 -0.00000000000E+00 -0.64498000808E+03  0.64498000808E+03  0.00000000000E+00 0.  1.
          2    1    1    2  501    0  0.54198739949E+01 -0.24435918916E+02 -0.21923438830E+03  0.22065857377E+03  0.00000000000E+00 0. -1.
         -2    1    1    2    0  503 -0.54198739949E+01  0.24435918916E+02 -0.42466503308E+03  0.42540202102E+03  0.00000000000E+00 0.  1.
<mgrwt>
<rscale>  2 0.25029766E+02</rscale>
<asrwt>0</asrwt>
<pdfrwt beam="1">  1       21 0.16624415E-03 0.25029766E+02</pdfrwt>
<pdfrwt beam="2">  1       21 0.99227670E-01 0.25029766E+02</pdfrwt>
<totfact> 0.39754731E+07</totfact>
</mgrwt>
</event>
<event>
 4    1  0.7499963E+004  0.3588160E+02  0.7546771E-02  0.1540908E+00
         21   -1    0    0  501  502  0.00000000000E+00  0.00000000000E+00  0.42099854692E+02  0.42099854692E+02  0.00000000000E+00 0.  1.
         21   -1    0    0  502  503 -0.00000000000E+00 -0.00000000000E+00 -0.30840185147E+02  0.30840185147E+02  0.00000000000E+00 0.  1.
          5    1    1    2  501    0 -0.34182831960E+02 -0.10909765841E+02  0.22915900875E+01  0.35954698951E+02  0.00000000000E+00 0.  1.
         -5    1    1    2    0  503  0.34182831960E+02  0.10909765841E+02  0.89680794569E+01  0.36985340889E+02  0.00000000000E+00 0. -1.
<mgrwt>
<rscale>  2 0.35881597E+02</rscale>
<asrwt>0</asrwt>
<pdfrwt beam="1">  1       21 0.64769008E-02 0.35881597E+02</pdfrwt>
<pdfrwt beam="2">  1       21 0.47446438E-02 0.35881597E+02</pdfrwt>
<totfact> 0.40614358E+07</totfact>
</mgrwt>
</event>
<event>
 4    1  0.7499963E+004  0.2933352E+02  0.7546771E-02  0.1605575E+00
         21   -1    0    0  503  502  0.00000000000E+00  0.00000000000E+00  0.36308551000E+02  0.36308551000E+02  0.00000000000E+00 0. -1.
         21   -1    0    0  501  503 -0.00000000000E+00 -0.00000000000E+00 -0.23921659769E+02  0.23921659769E+02  0.00000000000E+00 0. -1.
          2    1    1    2  501    0 -0.21571064245E+02  0.19878244666E+02  0.91026281126E+01  0.30713405253E+02  0.00000000000E+00 0. -1.
         -2    1    1    2    0  502  0.21571064245E+02 -0.19878244666E+02  0.32842631176E+01  0.29516805516E+02  0.00000000000E+00 0.  1.
<mgrwt>
<rscale>  2 0.29333520E+02</rscale>
<asrwt>0</asrwt>
<pdfrwt beam="1">  1       21 0.55859309E-02 0.29333520E+02</pdfrwt>
<pdfrwt beam="2">  1       21 0.36802553E-02 0.29333520E+02</pdfrwt>
<totfact> 0.74257449E+07</totfact>
</mgrwt>
</event>
<event>
 4    1  0.7499963E+004  0.2209533E+02  0.7546771E-02  0.1706608E+00
         21   -1    0    0  503  502  0.00000000000E+00  0.00000000000E+00  0.78463643377E+02  0.78463643377E+02  0.00000000000E+00 0.  1.
         21   -1    0    0  501  503 -0.00000000000E+00 -0.00000000000E+00 -0.62445650622E+01  0.62445650622E+01  0.00000000000E+00 0.  1.
          3    1    1    2  501    0  0.15395313676E+02  0.15848910476E+02  0.38653508935E+02  0.44522998545E+02  0.00000000000E+00 0. -1.
         -3    1    1    2    0  502 -0.15395313676E+02 -0.15848910476E+02  0.33565569379E+02  0.40185209894E+02  0.00000000000E+00 0.  1.
<mgrwt>
<rscale>  2 0.22095331E+02</rscale>
<asrwt>0</asrwt>
<pdfrwt beam="1">  1       21 0.12071329E-01 0.22095331E+02</pdfrwt>
<pdfrwt beam="2">  1       21 0.96070237E-03 0.22095331E+02</pdfrwt>
<totfact> 0.15311836E+08</totfact>
</mgrwt>
</event>
<event>
 4    1  0.7499963E+004  0.3306416E+02  0.7546771E-02  0.1566495E+00
         21   -1    0    0  503  502  0.00000000000E+00  0.00000000000E+00  0.71408578410E+00  0.71408578410E+00  0.00000000000E+00 0.  1.
         21   -1    0    0  501  503 -0.00000000000E+00 -0.00000000000E+00 -0.15331333201E+04  0.15331333201E+04  0.00000000000E+00 0.  1.
          2    1    1    2  501    0  0.26668318273E+02 -0.19545833975E+02 -0.79506564611E+03  0.79575286392E+03  0.00000000000E+00 0. -1.
         -2    1    1    2    0  502 -0.26668318273E+02  0.19545833975E+02 -0.73735358820E+03  0.73809454195E+03  0.00000000000E+00 0.  1.
<mgrwt>
<rscale>  2 0.33064162E+02</rscale>
<asrwt>0</asrwt>
<pdfrwt beam="1">  1       21 0.10985878E-03 0.33064162E+02</pdfrwt>
<pdfrwt beam="2">  1       21 0.23586789E+00 0.33064162E+02</pdfrwt>
<totfact> 0.89915292E+06</totfact>
</mgrwt>
</event>
<event>
 4    1  0.7499963E+004  0.2005520E+02  0.7546771E-02  0.1744233E+00
         21   -1    0    0  503  502  0.00000000000E+00  0.00000000000E+00  0.48641936197E+02  0.48641936197E+02  0.00000000000E+00 0.  1.
         21   -1    0    0  501  503 -0.00000000000E+00 -0.00000000000E+00 -0.11517370861E+02  0.11517370861E+02  0.00000000000E+00 0.  1.
          2    1    1    2  501    0  0.15937927378E+02 -0.12173471893E+02  0.34537310817E+02  0.39937911632E+02  0.00000000000E+00 0.  1.
         -2    1    1    2    0  502 -0.15937927378E+02  0.12173471893E+02  0.25872545187E+01  0.20221395426E+02  0.00000000000E+00 0. -1.
<mgrwt>
<rscale>  2 0.20055198E+02</rscale>
<asrwt>0</asrwt>
<pdfrwt beam="1">  1       21 0.74833747E-02 0.20055198E+02</pdfrwt>
<pdfrwt beam="2">  1       21 0.17719032E-02 0.20055198E+02</pdfrwt>
<totfact> 0.12950001E+08</totfact>
</mgrwt>
</event>
<event>
 4    1  0.7499963E+004  0.2733686E+02  0.7546771E-02  0.1629541E+00
         21   -1    0    0  503  502  0.00000000000E+00  0.00000000000E+00  0.47106042478E+03  0.47106042478E+03  0.00000000000E+00 0. -1.
         21   -1    0    0  501  503 -0.00000000000E+00 -0.00000000000E+00 -0.16001373802E+01  0.16001373802E+01  0.00000000000E+00 0. -1.
          4    1    1    2  501    0 -0.27247390794E+02  0.22099346300E+01  0.21285619621E+03  0.21460443701E+03  0.00000000000E+00 0.  1.
         -4    1    1    2    0  502  0.27247390794E+02 -0.22099346300E+01  0.25660409119E+03  0.25805612516E+03  0.00000000000E+00 0. -1.
<mgrwt>
<rscale>  2 0.27336864E+02</rscale>
<asrwt>0</asrwt>
<pdfrwt beam="1">  1       21 0.72470724E-01 0.27336864E+02</pdfrwt>
<pdfrwt beam="2">  1       21 0.24617536E-03 0.27336864E+02</pdfrwt>
<totfact> 0.44747402E+07</totfact>
</mgrwt>
</event>
<event>
 4    1  0.7499963E+004  0.2430097E+02  0.7546771E-02  0.1671250E+00
         21   -1    0    0  501  502  0.00000000000E+00  0.00000000000E+00  0.25900116514E+03  0.25900116514E+03  0.00000000000E+00 0. -1.
         21   -1    0    0  502  503 -0.00000000000E+00 -0.00000000000E+00 -0.24234253274E+01  0.24234253274E+01  0.00000000000E+00 0. -1.
          1    1    1    2  501    0 -0.24048703973E+02 -0.34923995432E+01  0.96495937917E+02  0.99508808915E+02  0.00000000000E+00 0. -1.
         -1    1    1    2    0  503  0.24048703973E+02  0.34923995432E+01  0.16008180189E+03  0.16191578155E+03  0.00000000000E+00 0.  1.
<mgrwt>
<rscale>  2 0.24300967E+02</rscale>
<asrwt>0</asrwt>
<pdfrwt beam="1">  1       21 0.39846311E-01 0.24300967E+02</pdfrwt>
<pdfrwt beam="2">  1       21 0.37283487E-03 0.24300967E+02</pdfrwt>
<totfact> 0.77508032E+07</totfact>
</mgrwt>
</event>
<event>
 4    1  0.7499963E+004  0.2070843E+02  0.7546771E-02  0.1731596E+00
         21   -1    0    0  501  502  0.00000000000E+00  0.00000000000E+00  0.14516898155E+03  0.14516898155E+03  0.00000000000E+00 0.  1.
         21   -1    0    0  502  503 -0.00000000000E+00 -0.00000000000E+00 -0.29991969950E+01  0.29991969950E+01  0.00000000000E+00 0.  1.
          5    1    1    2  501    0 -0.17144007530E+02  0.11615604815E+02  0.80172357807E+02  0.82803660702E+02  0.00000000000E+00 0.  1.
         -5    1    1    2    0  503  0.17144007530E+02 -0.11615604815E+02  0.61997426752E+02  0.65364517847E+02  0.00000000000E+00 0. -1.
<mgrwt>
<rscale>  2 0.20708435E+02</rscale>
<asrwt>0</asrwt>
<pdfrwt beam="1">  1       21 0.22333684E-01 0.20708435E+02</pdfrwt>
<pdfrwt beam="2">  1       21 0.46141503E-03 0.20708435E+02</pdfrwt>
<totfact> 0.15538533E+08</totfact>
</mgrwt>
</event>
<event>
 4    1  0.7499963E+004  0.3341477E+02  0.7546771E-02  0.1563146E+00
         21   -1    0    0  503  502  0.00000000000E+00  0.00000000000E+00  0.26036822935E+02  0.26036822935E+02  0.00000000000E+00 0.  1.
         21   -1    0    0  501  503 -0.00000000000E+00 -0.00000000000E+00 -0.45102351212E+02  0.45102351212E+02  0.00000000000E+00 0.  1.
          1    1    1    2  501    0  0.48113109232E+01  0.33066574192E+02 -0.17422360854E+02  0.37684024458E+02  0.00000000000E+00 0. -1.
         -1    1    1    2    0  502 -0.48113109232E+01 -0.33066574192E+02 -0.16431674230E+01  0.33455149690E+02  0.00000000000E+00 0.  1.
<mgrwt>
<rscale>  2 0.33414773E+02</rscale>
<asrwt>0</asrwt>
<pdfrwt beam="1">  1       21 0.40056651E-02 0.33414773E+02</pdfrwt>
<pdfrwt beam="2">  1       21 0.69388232E-02 0.33414773E+02</pdfrwt>
<totfact> 0.46915855E+07</totfact>
</mgrwt>
</event>
<event>
 4    1  0.7499963E+004  0.2191646E+02  0.7546771E-02  0.1709701E+00
         21   -1    0    0  501  502  0.00000000000E+00  0.00000000000E+00  0.38863184881E+02  0.38863184881E+02  0.00000000000E+00 0.  1.
         21   -1    0    0  502  503 -0.00000000000E+00 -0.00000000000E+00 -0.12669335098E+02  0.12669335098E+02  0.00000000000E+00 0.  1.
          5    1    1    2  501    0 -0.73411338482E+01  0.20650395551E+02  0.17126060111E+02  0.27814259248E+02  0.00000000000E+00 0. -1.
         -5    1    1    2    0  503  0.73411338482E+01 -0.20650395551E+02  0.90677896714E+01  0.23718260731E+02  0.00000000000E+00 0.  1.
<mgrwt>
<rscale>  2 0.21916457E+02</rscale>
<asrwt>0</asrwt>
<pdfrwt beam="1">  1       21 0.59789515E-02 0.21916457E+02</pdfrwt>
<pdfrwt beam="2">  1       21 0.19491285E-02 0.21916457E+02</pdfrwt>
<totfact> 0.16517247E+08</totfact>
</mgrwt>
</event>
<event>
 4    1  0.7499963E+004  0.2125716E+02  0.7546771E-02  0.1721425E+00
         21   -1    0    0  503  502  0.00000000000E+00  0.00000000000E+00  0.12421323567E+04  0.12421323567E+04  0.00000000000E+00 0. -1.
         21   -1    0    0  501  503 -0.00000000000E+00 -0.00000000000E+00 -0.58471172982E+00  0.58471172982E+00  0.00000000000E+00 0. -1.
          3    1    1    2  501    0  0.11192323693E+02  0.18072046246E+02  0.23883201306E+03  0.23977614024E+03  0.00000000000E+00 0. -1.
         -3    1    1    2    0  502 -0.11192323693E+02 -0.18072046246E+02  0.10027156319E+04  0.10029409282E+04  0.00000000000E+00 0.  1.
<mgrwt>
<rscale>  2 0.21257163E+02</rscale>
<asrwt>0</asrwt>
<pdfrwt beam="1">  1       21 0.19109517E+00 0.21257163E+02</pdfrwt>
<pdfrwt beam="2">  1       21 0.89956645E-04 0.21257163E+02</pdfrwt>
<totfact> 0.20061548E+07</totfact>
</mgrwt>
</event>
<event>
 4    1  0.7499963E+004  0.3036410E+02  0.7546771E-02  0.1594099E+00
         21   -1    0    0  503  502  0.00000000000E+00  0.00000000000E+00  0.28705925168E+02  0.28705925168E+02  0.00000000000E+00 0. -1.
         21   -1    0    0  501  503 -0.00000000000E+00 -0.00000000000E+00 -0.32124117299E+02  0.32124117299E+02  0.00000000000E+00 0. -1.
          5    1    1    2  501    0 -0.13595758882E+02  0.27150214632E+02 -0.12916714318E+01  0.30391565100E+02  0.00000000000E+00 0.  1.
         -5    1    1    2    0  502  0.13595758882E+02 -0.27150214632E+02 -0.21265206987E+01  0.30438477367E+02  0.00000000000E+00 0. -1.
<mgrwt>
<rscale>  2 0.30364104E+02</rscale>
<asrwt>0</asrwt>
<pdfrwt beam="1">  1       21 0.44162962E-02 0.30364104E+02</pdfrwt>
<pdfrwt beam="2">  1       21 0.49421719E-02 0.30364104E+02</pdfrwt>
<totfact> 0.68214088E+07</totfact>
</mgrwt>
</event>
<event>
 4    1  0.7499963E+004  0.2817074E+02  0.7546771E-02  0.1619236E+00
         21   -1    0    0  503  502  0.00000000000E+00  0.00000000000E+00  0.92707345310E+01  0.92707345310E+01  0.00000000000E+00 0. -1.
         21   -1    0    0  501  503 -0.00000000000E+00 -0.00000000000E+00 -0.88299570063E+02  0.88299570063E+02  0.00000000000E+00 0. -1.
          4    1    1    2  501    0  0.23962373257E+02 -0.14811992855E+02 -0.30986944328E+02  0.41878170725E+02  0.00000000000E+00 0.  1.
         -4    1    1    2    0  502 -0.23962373257E+02  0.14811992855E+02 -0.48041891204E+02  0.55692133869E+02  0.00000000000E+00 0. -1.
<mgrwt>
<rscale>  2 0.28170738E+02</rscale>
<asrwt>0</asrwt>
<pdfrwt beam="1">  1       21 0.14262668E-02 0.28170738E+02</pdfrwt>
<pdfrwt beam="2">  1       21 0.13584549E-01 0.28170738E+02</pdfrwt>
<totfact> 0.73674050E+07</totfact>
</mgrwt>
</event>
<event>
 4    1  0.7499963E+004  0.2127983E+02  0.7546771E-02  0.1721013E+00
         21   -1    0    0  501  502  0.00000000000E+00  0.00000000000E+00  0.21742735966E+02  0.21742735966E+02  0.00000000000E+00 0. -1.
         21   -1    0    0  502  503 -0.00000000000E+00 -0.00000000000E+00 -0.23073340007E+02  0.23073340007E+02  0.00000000000E+00 0. -1.
          3    1    1    2  501    0 -0.19522680476E+02  0.84673637669E+01  0.63267888133E+01  0.22200440509E+02  0.00000000000E+00 0. -1.
         -3    1    1    2    0  503  0.19522680476E+02 -0.84673637669E+01 -0.76573928543E+01  0.22615635464E+02  0.00000000000E+00 0.  1.
<mgrwt>
<rscale>  2 0.21279833E+02</rscale>
<asrwt>0</asrwt>
<pdfrwt beam="1">  1       21 0.33450363E-02 0.21279833E+02</pdfrwt>
<pdfrwt beam="2">  1       21 0.35497446E-02 0.21279833E+02</pdfrwt>
<totfact> 0.16217365E+08</totfact>
</mgrwt>
</event>
<event>
 4    1  0.7499963E+004  0.2385735E+02  0.7546771E-02  0.1677978E+00
         21   -1    0    0  503  502  0.00000000000E+00  0.00000000000E+00  0.27180970704E+03  0.27180970704E+03  0.00000000000E+00 0. -1.
         21   -1    0    0  501  503 -0.00000000000E+00 -0.00000000000E+00 -0.24078037518E+01  0.24078037518E+01  0.00000000000E+00 0. -1.
          1    1    1    2  501    0 -0.19100177581E+01  0.23780767892E+02  0.18419746877E+03  0.18573605087E+03  0.00000000000E+00 0. -1.
         -1    1    1    2    0  502  0.19100177581E+01 -0.23780767892E+02  0.85204434522E+02  0.88481459931E+02  0.00000000000E+00 0.  1.
<mgrwt>
<rscale>  2 0.23857349E+02</rscale>
<asrwt>0</asrwt>
<pdfrwt beam="1">  1       21 0.41816854E-01 0.23857349E+02</pdfrwt>
<pdfrwt beam="2">  1       21 0.37043156E-03 0.23857349E+02</pdfrwt>
<totfact> 0.71084653E+07</totfact>
</mgrwt>
</event>
<event>
 4    1  0.7499963E+004  0.3221803E+02  0.7546771E-02  0.1574790E+00
         21   -1    0    0  503  502  0.00000000000E+00  0.00000000000E+00  0.37567753525E+01  0.37567753525E+01  0.00000000000E+00 0. -1.
         21   -1    0    0  501  503 -0.00000000000E+00 -0.00000000000E+00 -0.27632630762E+03  0.27632630762E+03  0.00000000000E+00 0. -1.
          2    1    1    2  501    0 -0.26446936573E+02  0.18400028810E+02 -0.13761983332E+03  0.14134079396E+03  0.00000000000E+00 0.  1.
         -2    1    1    2    0  502  0.26446936573E+02 -0.18400028810E+02 -0.13494969895E+03  0.13874228901E+03  0.00000000000E+00 0. -1.
<mgrwt>
<rscale>  2 0.32218031E+02</rscale>
<asrwt>0</asrwt>
<pdfrwt beam="1">  1       21 0.57796553E-03 0.32218031E+02</pdfrwt>
<pdfrwt beam="2">  1       21 0.42511733E-01 0.32218031E+02</pdfrwt>
<totfact> 0.38019313E+07</totfact>
</mgrwt>
</event>
<event>
 4    1  0.7499963E+004  0.2763202E+02  0.7546771E-02  0.1625842E+00
         21   -1    0    0  503  502  0.00000000000E+00  0.00000000000E+00  0.80969475174E+02  0.80969475174E+02  0.00000000000E+00 0.  1.
         21   -1    0    0  501  503 -0.00000000000E+00 -0.00000000000E+00 -0.95737930308E+01  0.95737930308E+01  0.00000000000E+00 0.  1.
          2    1    1    2  501    0  0.25554745291E+02  0.10511126900E+02  0.41249234606E+02  0.49649049852E+02  0.00000000000E+00 0.  1.
         -2    1    1    2    0  502 -0.25554745291E+02 -0.10511126900E+02  0.30146447537E+02  0.40894218353E+02  0.00000000000E+00 0. -1.
<mgrwt>
<rscale>  2 0.27632025E+02</rscale>
<asrwt>0</asrwt>
<pdfrwt beam="1">  1       21 0.12456842E-01 0.27632025E+02</pdfrwt>
<pdfrwt beam="2">  1       21 0.14728913E-02 0.27632025E+02</pdfrwt>
<totfact> 0.80869467E+07</totfact>
</mgrwt>
</event>
<event>
 4    1  0.7499963E+004  0.2005653E+02  0.7546771E-02  0.1744206E+00
         21   -1    0    0  501  502  0.00000000000E+00  0.00000000000E+00  0.22398140958E+02  0.22398140958E+02  0.00000000000E+00 0.  1.
         21   -1    0    0  502  503 -0.00000000000E+00 -0.00000000000E+00 -0.20555909058E+02  0.20555909058E+02  0.00000000000E+00 0.  1.
          1    1    1    2  501    0 -0.17967498647E+02  0.89125372829E+01 -0.67115100127E+01  0.21149673640E+02  0.00000000000E+00 0. -1.
         -1    1    1    2    0  503  0.17967498647E+02 -0.89125372829E+01  0.85537419121E+01  0.21804376376E+02  0.00000000000E+00 0.  1.
<mgrwt>
<rscale>  2 0.20056528E+02</rscale>
<asrwt>0</asrwt>
<pdfrwt beam="1">  1       21 0.34458678E-02 0.20056528E+02</pdfrwt>
<pdfrwt beam="2">  1       21 0.31624475E-02 0.20056528E+02</pdfrwt>
<totfact> 0.18188930E+08</totfact>
</mgrwt>
</event>
<event>
 4    1  0.7499963E+004  0.3347774E+02  0.7546771E-02  0.1562549E+00
         21   -1    0    0  503  502  0.00000000000E+00  0.00000000000E+00  0.35243429657E+03  0.35243429657E+03  0.00000000000E+00 0. -1.
         21   -1    0    0  501  503 -0.00000000000E+00 -0.00000000000E+00 -0.32004711249E+01  0.32004711249E+01  0.00000000000E+00 0. -1.
          5    1    1    2  501    0  0.16820470615E+02  0.28945310258E+02  0.16041355534E+03  0.16386966759E+03  0.00000000000E+00 0.  1.
         -5    1    1    2    0  502 -0.16820470615E+02 -0.28945310258E+02  0.18882027011E+03  0.19176510011E+03  0.00000000000E+00 0. -1.
<mgrwt>
<rscale>  2 0.33477742E+02</rscale>
<asrwt>0</asrwt>
<pdfrwt beam="1">  1       21 0.54220630E-01 0.33477742E+02</pdfrwt>
<pdfrwt beam="2">  1       21 0.49238045E-03 0.33477742E+02</pdfrwt>
<totfact> 0.30186212E+07</totfact>
</mgrwt>
</event>
<event>
 4    1  0.7499963E+004  0.2467648E+02  0.7546771E-02  0.1665693E+00
         21   -1    0    0  501  502  0.00000000000E+00  0.00000000000E+00  0.25109967212E+01  0.25109967212E+01  0.00000000000E+00 0.  1.
         21   -1    0    0  502  503 -0.00000000000E+00 -0.00000000000E+00 -0.24250810920E+03  0.24250810920E+03  0.00000000000E+00 0.  1.
          1    1    1    2  501    0 -0.42349500225E+01  0.24310363174E+02 -0.11954063556E+03  0.12206101798E+03  0.00000000000E+00 0. -1.
         -1    1    1    2    0  503  0.42349500225E+01 -0.24310363174E+02 -0.12045647692E+03  0.12295808795E+03  0.00000000000E+00 0.  1.
<mgrwt>
<rscale>  2 0.24676478E+02</rscale>
<asrwt>0</asrwt>
<pdfrwt beam="1">  1       21 0.38630716E-03 0.24676478E+02</pdfrwt>
<pdfrwt beam="2">  1       21 0.37308943E-01 0.24676478E+02</pdfrwt>
<totfact> 0.83573288E+07</totfact>
</mgrwt>
</event>
<event>
 4    1  0.7499963E+004  0.3661010E+02  0.7546771E-02  0.1534750E+00
         21   -1    0    0  503  502  0.00000000000E+00  0.00000000000E+00  0.32656260997E+03  0.32656260997E+03  0.00000000000E+00 0. -1.
         21   -1    0    0  501  503 -0.00000000000E+00 -0.00000000000E+00 -0.60755317693E+01  0.60755317693E+01  0.00000000000E+00 0. -1.
          1    1    1    2  501    0 -0.36373582253E+02  0.41547282151E+01  0.25498120547E+03  0.25759602947E+03  0.00000000000E+00 0.  1.
         -1    1    1    2    0  502  0.36373582253E+02 -0.41547282151E+01  0.65505872724E+02  0.75042112269E+02  0.00000000000E+00 0. -1.
<mgrwt>
<rscale>  2 0.36610098E+02</rscale>
<asrwt>0</asrwt>
<pdfrwt beam="1">  1       21 0.50240388E-01 0.36610098E+02</pdfrwt>
<pdfrwt beam="2">  1       21 0.93469745E-03 0.36610098E+02</pdfrwt>
<totfact> 0.13564553E+07</totfact>
</mgrwt>
</event>
<event>
 4    1  0.7499963E+004  0.2227903E+02  0.7546771E-02  0.1703471E+00
         21   -1    0    0  501  502  0.00000000000E+00  0.00000000000E+00  0.29687391192E+03  0.29687391192E+03  0.00000000000E+00 0.  1.
         21   -1    0    0  502  503 -0.00000000000E+00 -0.00000000000E+00 -0.17261314717E+01  0.17261314717E+01  0.00000000000E+00 0.  1.
          4    1    1    2  501    0  0.22232429936E+02  0.14401911418E+01  0.17402793871E+03  0.17544822183E+03  0.00000000000E+00 0. -1.
         -4    1    1    2    0  503 -0.22232429936E+02 -0.14401911418E+01  0.12111984173E+03  0.12315182156E+03  0.00000000000E+00 0.  1.
<mgrwt>
<rscale>  2 0.22279028E+02</rscale>
<asrwt>0</asrwt>
<pdfrwt beam="1">  1       21 0.45672869E-01 0.22279028E+02</pdfrwt>
<pdfrwt beam="2">  1       21 0.26555892E-03 0.22279028E+02</pdfrwt>
<totfact> 0.95934482E+07</totfact>
</mgrwt>
</event>
<event>
 4    1  0.7499963E+004  0.2917328E+02  0.7546771E-02  0.1607411E+00
         21   -1    0    0  503  502  0.00000000000E+00  0.00000000000E+00  0.10012939217E+02  0.10012939217E+02  0.00000000000E+00 0. -1.
         21   -1    0    0  501  503 -0.00000000000E+00 -0.00000000000E+00 -0.87752999000E+02  0.87752999000E+02  0.00000000000E+00 0. -1.
          3    1    1    2  501    0  0.21433894365E+02  0.19790613609E+02 -0.47531350423E+02  0.55770148715E+02  0.00000000000E+00 0. -1.
         -3    1    1    2    0  502 -0.21433894365E+02 -0.19790613609E+02 -0.30208709360E+02  0.41995789502E+02  0.00000000000E+00 0.  1.
<mgrwt>
<rscale>  2 0.29173279E+02</rscale>
<asrwt>0</asrwt>
<pdfrwt beam="1">  1       21 0.15404521E-02 0.29173279E+02</pdfrwt>
<pdfrwt beam="2">  1       21 0.13500462E-01 0.29173279E+02</pdfrwt>
<totfact> 0.66735885E+07</totfact>
</mgrwt>
</event>
<event>
 4    1  0.7499963E+004  0.2119026E+02  0.7546771E-02  0.1722644E+00
         21   -1    0    0  503  502  0.00000000000E+00  0.00000000000E+00  0.59897950620E+01  0.59897950620E+01  0.00000000000E+00 0.  1.
         21   -1    0    0  501  503 -0.00000000000E+00 -0.00000000000E+00 -0.83631132593E+02  0.83631132593E+02  0.00000000000E+00 0.  1.
          1    1    1    2  501    0  0.49021413761E+01 -0.20615438798E+02 -0.24396247115E+02  0.32314148298E+02  0.00000000000E+00 0. -1.
         -1    1    1    2    0  502 -0.49021413761E+01  0.20615438798E+02 -0.53245090416E+02  0.57306779357E+02  0.00000000000E+00 0.  1.
<mgrwt>
<rscale>  2 0.21190264E+02</rscale>
<asrwt>0</asrwt>
<pdfrwt beam="1">  1       21 0.92150695E-03 0.21190264E+02</pdfrwt>
<pdfrwt beam="2">  1       21 0.12866328E-01 0.21190264E+02</pdfrwt>
<totfact> 0.14462469E+08</totfact>
</mgrwt>
</event>
<event>
 4    1  0.7499963E+004  0.2630526E+02  0.7546771E-02  0.1642932E+00
         21   -1    0    0  501  502  0.00000000000E+00  0.00000000000E+00  0.21478075515E+01  0.21478075515E+01  0.00000000000E+00 0.  1.
         21   -1    0    0  502  503 -0.00000000000E+00 -0.00000000000E+00 -0.33554536733E+03  0.33554536733E+03  0.00000000000E+00 0.  1.
          4    1    1    2  501    0 -0.11082662530E+02 -0.23856684332E+02 -0.20040513460E+03  0.20212418156E+03  0.00000000000E+00 0.  1.
         -4    1    1    2    0  503  0.11082662530E+02  0.23856684332E+02 -0.13299242517E+03  0.13556899332E+03  0.00000000000E+00 0. -1.
<mgrwt>
<rscale>  2 0.26305262E+02</rscale>
<asrwt>0</asrwt>
<pdfrwt beam="1">  1       21 0.33043189E-03 0.26305262E+02</pdfrwt>
<pdfrwt beam="2">  1       21 0.51622371E-01 0.26305262E+02</pdfrwt>
<totfact> 0.57244282E+07</totfact>
</mgrwt>
</event>
<event>
 4    1  0.7499963E+004  0.2128918E+02  0.7546771E-02  0.1720843E+00
         21   -1    0    0  501  502  0.00000000000E+00  0.00000000000E+00  0.39203999265E+01  0.39203999265E+01  0.00000000000E+00 0.  1.
         21   -1    0    0  502  503 -0.00000000000E+00 -0.00000000000E+00 -0.13707113891E+03  0.13707113891E+03  0.00000000000E+00 0.  1.
          5    1    1    2  501    0 -0.24696745418E+01 -0.21145444004E+02 -0.94471113779E+02  0.96840179849E+02  0.00000000000E+00 0. -1.
         -5    1    1    2    0  503  0.24696745418E+01  0.21145444004E+02 -0.38679625203E+02  0.44151358986E+02  0.00000000000E+00 0.  1.
<mgrwt>
<rscale>  2 0.21289178E+02</rscale>
<asrwt>0</asrwt>
<pdfrwt beam="1">  1       21 0.60313859E-03 0.21289178E+02</pdfrwt>
<pdfrwt beam="2">  1       21 0.21087863E-01 0.21289178E+02</pdfrwt>
<totfact> 0.11676760E+08</totfact>
</mgrwt>
</event>
<event>
 4    1  0.7499963E+004  0.2177652E+02  0.7546771E-02  0.1712146E+00
         21   -1    0    0  501  502  0.00000000000E+00  0.00000000000E+00  0.14678458326E+04  0.14678458326E+04  0.00000000000E+00 0.  1.
         21   -1    0    0  502  503 -0.00000000000E+00 -0.00000000000E+00 -0.32387933592E+00  0.32387933592E+00  0.00000000000E+00 0.  1.
          5    1    1    2  501    0 -0.21654383728E+02  0.23031449478E+01  0.77045919479E+03  0.77076688282E+03  0.00000000000E+00 0.  1.
         -5    1    1    2    0  503  0.21654383728E+02 -0.23031449478E+01  0.69706275844E+03  0.69740282908E+03  0.00000000000E+00 0. -1.
<mgrwt>
<rscale>  2 0.21776520E+02</rscale>
<asrwt>0</asrwt>
<pdfrwt beam="1">  1       21 0.22581711E+00 0.21776520E+02</pdfrwt>
<pdfrwt beam="2">  1       21 0.49828765E-04 0.21776520E+02</pdfrwt>
<totfact> 0.30036215E+07</totfact>
</mgrwt>
</event>
<event>
 4    1  0.7499963E+004  0.3141198E+02  0.7546771E-02  0.1582986E+00
         21   -1    0    0  503  502  0.00000000000E+00  0.00000000000E+00  0.15662299312E+02  0.15662299312E+02  0.00000000000E+00 0.  1.
         21   -1    0    0  501  503 -0.00000000000E+00 -0.00000000000E+00 -0.71896790170E+02  0.71896790170E+02  0.00000000000E+00 0.  1.
          3    1    1    2  501    0  0.31117938906E+02 -0.42879039399E+01 -0.12716107107E+02  0.33888222466E+02  0.00000000000E+00 0.  1.
         -3    1    1    2    0  502 -0.31117938906E+02  0.42879039399E+01 -0.43518383751E+02  0.53670867016E+02  0.00000000000E+00 0. -1.
<mgrwt>
<rscale>  2 0.31411976E+02</rscale>
<asrwt>0</asrwt>
<pdfrwt beam="1">  1       21 0.24095846E-02 0.31411976E+02</pdfrwt>
<pdfrwt beam="2">  1       21 0.11061044E-01 0.31411976E+02</pdfrwt>
<totfact> 0.47583351E+07</totfact>
</mgrwt>
</event>
<event>
 4    1  0.7499963E+004  0.2074620E+02  0.7546771E-02  0.1730884E+00
         21   -1    0    0  503  502  0.00000000000E+00  0.00000000000E+00  0.33759498690E+01  0.33759498690E+01  0.00000000000E+00 0. -1.
         21   -1    0    0  501  503 -0.00000000000E+00 -0.00000000000E+00 -0.12939278428E+03  0.12939278428E+03  0.00000000000E+00 0. -1.
          5    1    1    2  501    0  0.12988955133E+02 -0.16176890029E+02 -0.71055539834E+02  0.74022256569E+02  0.00000000000E+00 0.  1.
         -5    1    1    2    0  502 -0.12988955133E+02  0.16176890029E+02 -0.54961294578E+02  0.58746477581E+02  0.00000000000E+00 0. -1.
<mgrwt>
<rscale>  2 0.20746198E+02</rscale>
<asrwt>0</asrwt>
<pdfrwt beam="1">  1       21 0.51937700E-03 0.20746198E+02</pdfrwt>
<pdfrwt beam="2">  1       21 0.19906578E-01 0.20746198E+02</pdfrwt>
<totfact> 0.15972637E+08</totfact>
</mgrwt>
</event>
<event>
 4    1  0.7499963E+004  0.2224432E+02  0.7546771E-02  0.1704061E+00
         21   -1    0    0  503  502  0.00000000000E+00  0.00000000000E+00  0.17555869653E+02  0.17555869653E+02  0.00000000000E+00 0.  1.
         21   -1    0    0  501  503 -0.00000000000E+00 -0.00000000000E+00 -0.32550214786E+02  0.32550214786E+02  0.00000000000E+00 0.  1.
          2    1    1    2  501    0  0.15082102019E+02 -0.16350534573E+02 -0.16671899801E+02  0.27798597539E+02  0.00000000000E+00 0. -1.
         -2    1    1    2    0  502 -0.15082102019E+02  0.16350534573E+02  0.16775546682E+01  0.22307486900E+02  0.00000000000E+00 0.  1.
<mgrwt>
<rscale>  2 0.22244320E+02</rscale>
<asrwt>0</asrwt>
<pdfrwt beam="1">  1       21 0.27009030E-02 0.22244320E+02</pdfrwt>
<pdfrwt beam="2">  1       21 0.50077253E-02 0.22244320E+02</pdfrwt>
<totfact> 0.13326164E+08</totfact>
</mgrwt>
</event>
<event>
 4    1  0.7499963E+004  0.2210212E+02  0.7546771E-02  0.1706492E+00
         21   -1    0    0  501  502  0.00000000000E+00  0.00000000000E+00  0.13316607364E+02  0.13316607364E+02  0.00000000000E+00 0. -1.
         21   -1    0    0  502  503 -0.00000000000E+00 -0.00000000000E+00 -0.42360991285E+02  0.42360991285E+02  0.00000000000E+00 0. -1.
          1    1    1    2  501    0 -0.19685124038E+02 -0.10049857153E+02 -0.24713602016E+02  0.33155178507E+02  0.00000000000E+00 0. -1.
         -1    1    1    2    0  503  0.19685124038E+02  0.10049857153E+02 -0.43307819044E+01  0.22522420143E+02  0.00000000000E+00 0.  1.
<mgrwt>
<rscale>  2 0.22102121E+02</rscale>
<asrwt>0</asrwt>
<pdfrwt beam="1">  1       21 0.20487088E-02 0.22102121E+02</pdfrwt>
<pdfrwt beam="2">  1       21 0.65170757E-02 0.22102121E+02</pdfrwt>
<totfact> 0.13358950E+08</totfact>
</mgrwt>
</event>
<event>
 4    1  0.7499963E+004  0.2084433E+02  0.7546771E-02  0.1729041E+00
         21   -1    0    0  503  502  0.00000000000E+00  0.00000000000E+00  0.77925215416E+01  0.77925215416E+01  0.00000000000E+00 0.  1.
         21   -1    0    0  501  503 -0.00000000000E+00 -0.00000000000E+00 -0.63984396958E+02  0.63984396958E+02  0.00000000000E+00 0.  1.
          3    1    1    2  501    0  0.99139034926E+01 -0.18335768840E+02 -0.40965234956E+02  0.45963424333E+02  0.00000000000E+00 0. -1.
         -3    1    1    2    0  502 -0.99139034926E+01  0.18335768840E+02 -0.15226640461E+02  0.25813494167E+02  0.00000000000E+00 0.  1.
<mgrwt>
<rscale>  2 0.20844325E+02</rscale>
<asrwt>0</asrwt>
<pdfrwt beam="1">  1       21 0.11988495E-02 0.20844325E+02</pdfrwt>
<pdfrwt beam="2">  1       21 0.98437531E-02 0.20844325E+02</pdfrwt>
<totfact> 0.15132403E+08</totfact>
</mgrwt>
</event>
<event>
 4    1  0.7499963E+004  0.2392024E+02  0.7546771E-02  0.1677013E+00
         21   -1    0    0  503  502  0.00000000000E+00  0.00000000000E+00  0.43699323935E+02  0.43699323935E+02  0.00000000000E+00 0. -1.
         21   -1    0    0  501  503 -0.00000000000E+00 -0.00000000000E+00 -0.14704993162E+02  0.14704993162E+02  0.00000000000E+00 0. -1.
          4    1    1    2  501    0 -0.23395877011E+02 -0.49810697204E+01  0.48301227668E+01  0.24403036750E+02  0.00000000000E+00 0. -1.
         -4    1    1    2    0  502  0.23395877011E+02  0.49810697204E+01  0.24164208006E+02  0.34001280347E+02  0.00000000000E+00 0.  1.
<mgrwt>
<rscale>  2 0.23920245E+02</rscale>
<asrwt>0</asrwt>
<pdfrwt beam="1">  1       21 0.67229729E-02 0.23920245E+02</pdfrwt>
<pdfrwt beam="2">  1       21 0.22623067E-02 0.23920245E+02</pdfrwt>
<totfact> 0.11164556E+08</totfact>
</mgrwt>
</event>
<event>
 4    1  0.7499963E+004  0.2144912E+02  0.7546771E-02  0.1717957E+00
         21   -1    0    0  503  502  0.00000000000E+00  0.00000000000E+00  0.45157544857E+02  0.45157544857E+02  0.00000000000E+00 0. -1.
         21   -1    0    0  501  503 -0.00000000000E+00 -0.00000000000E+00 -0.10543409791E+02  0.10543409791E+02  0.00000000000E+00 0. -1.
          5    1    1    2  501    0 -0.10683841485E+02 -0.18598932693E+02  0.12193654624E+02  0.24672859163E+02  0.00000000000E+00 0. -1.
         -5    1    1    2    0  502  0.10683841485E+02  0.18598932693E+02  0.22420480442E+02  0.31028095486E+02  0.00000000000E+00 0.  1.
<mgrwt>
<rscale>  2 0.21449120E+02</rscale>
<asrwt>0</asrwt>
<pdfrwt beam="1">  1       21 0.69473145E-02 0.21449120E+02</pdfrwt>
<pdfrwt beam="2">  1       21 0.16220631E-02 0.21449120E+02</pdfrwt>
<totfact> 0.17053577E+08</totfact>
</mgrwt>
</event>
<event>
 4    1  0.7499963E+004  0.2715584E+02  0.7546771E-02  0.1631837E+00
         21   -1    0    0  501  502  0.00000000000E+00  0.00000000000E+00  0.18075357683E+02  0.18075357683E+02  0.00000000000E+00 0.  1.
         21   -1    0    0  502  503 -0.00000000000E+00 -0.00000000000E+00 -0.40876387486E+02  0.40876387486E+02  0.00000000000E+00 0.  1.
          3    1    1    2  501    0 -0.59350854699E+01 -0.26499333283E+02 -0.12690633765E+02  0.29974857620E+02  0.00000000000E+00 0.  1.
         -3    1    1    2    0  503  0.59350854699E+01  0.26499333283E+02 -0.10110396038E+02  0.28976887549E+02  0.00000000000E+00 0. -1.
<mgrwt>
<rscale>  2 0.27155845E+02</rscale>
<asrwt>0</asrwt>
<pdfrwt beam="1">  1       21 0.27808243E-02 0.27155845E+02</pdfrwt>
<pdfrwt beam="2">  1       21 0.62886749E-02 0.27155845E+02</pdfrwt>
<totfact> 0.93421766E+07</totfact>
</mgrwt>
</event>
<event>
 4    1  0.7499963E+004  0.2051059E+02  0.7546771E-02  0.1735361E+00
         21   -1    0    0  503  502  0.00000000000E+00  0.00000000000E+00  0.11599985463E+02  0.11599985463E+02  0.00000000000E+00 0.  1.
         21   -1    0    0  501  503 -0.00000000000E+00 -0.00000000000E+00 -0.38701325392E+02  0.38701325392E+02  0.00000000000E+00 0.  1.
          3    1    1    2  501    0 -0.72311177880E+01 -0.19193629499E+02 -0.72415401992E+01  0.21751422534E+02  0.00000000000E+00 0.  1.
         -3    1    1    2    0  502  0.72311177880E+01  0.19193629499E+02 -0.19859799730E+02  0.28549888321E+02  0.00000000000E+00 0. -1.
<mgrwt>
<rscale>  2 0.20510594E+02</rscale>
<asrwt>0</asrwt>
<pdfrwt beam="1">  1       21 0.17846131E-02 0.20510594E+02</pdfrwt>
<pdfrwt beam="2">  1       21 0.59540502E-02 0.20510594E+02</pdfrwt>
<totfact> 0.18630491E+08</totfact>
</mgrwt>
</event>
<event>
 4    1  0.7499963E+004  0.2006215E+02  0.7546771E-02  0.1744095E+00
         21   -1    0    0  503  502  0.00000000000E+00  0.00000000000E+00  0.29432265055E+02  0.29432265055E+02  0.00000000000E+00 0.  1.
         21   -1    0    0  501  503 -0.00000000000E+00 -0.00000000000E+00 -0.15204151346E+02  0.15204151346E+02  0.00000000000E+00 0.  1.
          4    1    1    2  501    0 -0.25427177785E+01  0.19900366494E+02  0.14191644410E+02  0.24574229822E+02  0.00000000000E+00 0.  1.
         -4    1    1    2    0  502  0.25427177785E+01 -0.19900366494E+02  0.36469299199E-01  0.20062186579E+02  0.00000000000E+00 0. -1.
<mgrwt>
<rscale>  2 0.20062153E+02</rscale>
<asrwt>0</asrwt>
<pdfrwt beam="1">  1       21 0.45280408E-02 0.20062153E+02</pdfrwt>
<pdfrwt beam="2">  1       21 0.23391002E-02 0.20062153E+02</pdfrwt>
<totfact> 0.18887259E+08</totfact>
</mgrwt>
</event>
<event>
 4    1  0.7499963E+004  0.3327293E+02  0.7546771E-02  0.1564495E+00
         21   -1    0    0  501  502  0.00000000000E+00  0.00000000000E+00  0.26955972143E+02  0.26955972143E+02  0.00000000000E+00 0. -1.
         21   -1    0    0  502  503 -0.00000000000E+00 -0.00000000000E+00 -0.41298632131E+02  0.41298632131E+02  0.00000000000E+00 0. -1.
          1    1    1    2  501    0 -0.32478206700E+02 -0.72287064173E+01 -0.97092596165E+01  0.34660609187E+02  0.00000000000E+00 0.  1.
         -1    1    1    2    0  503  0.32478206700E+02  0.72287064173E+01 -0.46334003719E+01  0.33593995087E+02  0.00000000000E+00 0. -1.
<mgrwt>
<rscale>  2 0.33272934E+02</rscale>
<asrwt>0</asrwt>
<pdfrwt beam="1">  1       21 0.41470726E-02 0.33272934E+02</pdfrwt>
<pdfrwt beam="2">  1       21 0.63536357E-02 0.33272934E+02</pdfrwt>
<totfact> 0.51229181E+07</totfact>
</mgrwt>
</event>
<event>
 4    1  0.7499963E+004  0.2125705E+02  0.7546771E-02  0.1721427E+00
         21   -1    0    0  501  502  0.00000000000E+00  0.00000000000E+00  0.23602684067E+03  0.23602684067E+03  0.00000000000E+00 0.  1.
         21   -1    0    0  502  503 -0.00000000000E+00 -0.00000000000E+00 -0.20073579841E+01  0.20073579841E+01  0.00000000000E+00 0.  1.
          4    1    1    2  501    0  0.14339931197E+01 -0.21208626940E+02  0.14261430895E+03  0.14418981694E+03  0.00000000000E+00 0.  1.
         -4    1    1    2    0  503 -0.14339931197E+01  0.21208626940E+02  0.91405173736E+02  0.93844381711E+02  0.00000000000E+00 0. -1.
<mgrwt>
<rscale>  2 0.21257050E+02</rscale>
<asrwt>0</asrwt>
<pdfrwt beam="1">  1       21 0.36311800E-01 0.21257050E+02</pdfrwt>
<pdfrwt beam="2">  1       21 0.30882449E-03 0.21257050E+02</pdfrwt>
<totfact> 0.11720310E+08</totfact>
</mgrwt>
</event>
<event>
 4    1  0.7499963E+004  0.2480602E+02  0.7546771E-02  0.1663804E+00
         21   -1    0    0  503  502  0.00000000000E+00  0.00000000000E+00  0.52364058674E+03  0.52364058674E+03  0.00000000000E+00 0.  1.
         21   -1    0    0  501  503 -0.00000000000E+00 -0.00000000000E+00 -0.11779340452E+01  0.11779340452E+01  0.00000000000E+00 0.  1.
          4    1    1    2  501    0  0.20183920728E+02  0.14420394951E+02  0.27406616676E+03  0.27518648624E+03  0.00000000000E+00 0.  1.
         -4    1    1    2    0  502 -0.20183920728E+02 -0.14420394951E+02  0.24839648593E+03  0.24963203454E+03  0.00000000000E+00 0. -1.
<mgrwt>
<rscale>  2 0.24806016E+02</rscale>
<asrwt>0</asrwt>
<pdfrwt beam="1">  1       21 0.80559904E-01 0.24806016E+02</pdfrwt>
<pdfrwt beam="2">  1       21 0.18122104E-03 0.24806016E+02</pdfrwt>
<totfact> 0.54816090E+07</totfact>
</mgrwt>
</event>
<event>
 4    1  0.7499963E+004  0.2340831E+02  0.7546771E-02  0.1684976E+00
         21   -1    0    0  503  502  0.00000000000E+00  0.00000000000E+00  0.15089708969E+01  0.15089708969E+01  0.00000000000E+00 0. -1.
         21   -1    0    0  501  503 -0.00000000000E+00 -0.00000000000E+00 -0.46102947577E+03  0.46102947577E+03  0.00000000000E+00 0. -1.
          1    1    1    2  501    0  0.23393752415E+02  0.82529277788E+00 -0.33633377615E+03  0.33714738282E+03  0.00000000000E+00 0.  1.
         -1    1    1    2    0  502 -0.23393752415E+02 -0.82529277788E+00 -0.12318672872E+03  0.12539106385E+03  0.00000000000E+00 0. -1.
<mgrwt>
<rscale>  2 0.23408305E+02</rscale>
<asrwt>0</asrwt>
<pdfrwt beam="1">  1       21 0.23214934E-03 0.23408305E+02</pdfrwt>
<pdfrwt beam="2">  1       21 0.70927620E-01 0.23408305E+02</pdfrwt>
<totfact> 0.49297778E+07</totfact>
</mgrwt>
</event>
<event>
 4    1  0.7499963E+004  0.2491219E+02  0.7546771E-02  0.1662266E+00
         21   -1    0    0  501  502  0.00000000000E+00  0.00000000000E+00  0.74140624122E+03  0.74140624122E+03  0.00000000000E+00 0.  1.
         21   -1    0    0  502  503 -0.00000000000E+00 -0.00000000000E+00 -0.96483887565E+00  0.96483887565E+00  0.00000000000E+00 0.  1.
          1    1    1    2  501    0 -0.17581240789E+02 -0.17649848050E+02  0.50529020237E+03  0.50590394915E+03  0.00000000000E+00 0. -1.
         -1    1    1    2    0  503  0.17581240789E+02  0.17649848050E+02  0.23515119998E+03  0.23646713094E+03  0.00000000000E+00 0.  1.
<mgrwt>
<rscale>  2 0.24912189E+02</rscale>
<asrwt>0</asrwt>
<pdfrwt beam="1">  1       21 0.11406204E+00 0.24912189E+02</pdfrwt>
<pdfrwt beam="2">  1       21 0.14843734E-03 0.24912189E+02</pdfrwt>
<totfact> 0.34302646E+07</totfact>
</mgrwt>
</event>
<event>
 4    1  0.7499963E+004  0.2166095E+02  0.7546771E-02  0.1714183E+00
         21   -1    0    0  503  502  0.00000000000E+00  0.00000000000E+00  0.16337161058E+03  0.16337161058E+03  0.00000000000E+00 0. -1.
         21   -1    0    0  501  503 -0.00000000000E+00 -0.00000000000E+00 -0.28784802319E+01  0.28784802319E+01  0.00000000000E+00 0. -1.
          3    1    1    2  501    0 -0.12506898971E+02 -0.17685422022E+02  0.76290227403E+02  0.79305708944E+02  0.00000000000E+00 0.  1.
         -3    1    1    2    0  502  0.12506898971E+02  0.17685422022E+02  0.84202902944E+02  0.86944381866E+02  0.00000000000E+00 0. -1.
<mgrwt>
<rscale>  2 0.21660948E+02</rscale>
<asrwt>0</asrwt>
<pdfrwt beam="1">  1       21 0.25134087E-01 0.21660948E+02</pdfrwt>
<pdfrwt beam="2">  1       21 0.44284324E-03 0.21660948E+02</pdfrwt>
<totfact> 0.13572539E+08</totfact>
</mgrwt>
</event>
<event>
 4    1  0.7499963E+004  0.2171397E+02  0.7546771E-02  0.1713246E+00
         21   -1    0    0  501  502  0.00000000000E+00  0.00000000000E+00  0.13745475684E+01  0.13745475684E+01  0.00000000000E+00 0.  1.
         21   -1    0    0  502  503 -0.00000000000E+00 -0.00000000000E+00 -0.34681621634E+03  0.34681621634E+03  0.00000000000E+00 0.  1.
          4    1    1    2  501    0 -0.14602379737E+02  0.16070687751E+02 -0.15450510112E+03  0.15602346866E+03  0.00000000000E+00 0. -1.
         -4    1    1    2    0  503  0.14602379737E+02 -0.16070687751E+02 -0.19093656765E+03  0.19216729525E+03  0.00000000000E+00 0.  1.
<mgrwt>
<rscale>  2 0.21713970E+02</rscale>
<asrwt>0</asrwt>
<pdfrwt beam="1">  1       21 0.21146877E-03 0.21713970E+02</pdfrwt>
<pdfrwt beam="2">  1       21 0.53356362E-01 0.21713970E+02</pdfrwt>
<totfact> 0.98046621E+07</totfact>
</mgrwt>
</event>
<event>
 4    1  0.7499963E+004  0.2149479E+02  0.7546771E-02  0.1717139E+00
         21   -1    0    0  503  502  0.00000000000E+00  0.00000000000E+00  0.36606060772E+03  0.36606060772E+03  0.00000000000E+00 0.  1.
         21   -1    0    0  501  503 -0.00000000000E+00 -0.00000000000E+00 -0.12622051877E+01  0.12622051877E+01  0.00000000000E+00 0.  1.
          4    1    1    2  501    0  0.20815474814E+02  0.53611420418E+01  0.18126045590E+03  0.18253048706E+03  0.00000000000E+00 0. -1.
         -4    1    1    2    0  502 -0.20815474814E+02 -0.53611420418E+01  0.18353794664E+03  0.18479232585E+03  0.00000000000E+00 0.  1.
<mgrwt>
<rscale>  2 0.21494786E+02</rscale>
<asrwt>0</asrwt>
<pdfrwt beam="1">  1       21 0.56316932E-01 0.21494786E+02</pdfrwt>
<pdfrwt beam="2">  1       21 0.19418570E-03 0.21494786E+02</pdfrwt>
<totfact> 0.99438559E+07</totfact>
</mgrwt>
</event>
<event>
 4    1  0.7499963E+004  0.3222559E+02  0.7546771E-02  0.1574715E+00
         21   -1    0    0  503  502  0.00000000000E+00  0.00000000000E+00  0.25543852536E+03  0.25543852536E+03  0.00000000000E+00 0. -1.
         21   -1    0    0  501  503 -0.00000000000E+00 -0.00000000000E+00 -0.44521146331E+01  0.44521146331E+01  0.00000000000E+00 0. -1.
          5    1    1    2  501    0 -0.37619423166E+01  0.32005253092E+02  0.16378535770E+03  0.16692552780E+03  0.00000000000E+00 0.  1.
         -5    1    1    2    0  502  0.37619423166E+01 -0.32005253092E+02  0.87201053030E+02  0.92965112192E+02  0.00000000000E+00 0. -1.
<mgrwt>
<rscale>  2 0.32225587E+02</rscale>
<asrwt>0</asrwt>
<pdfrwt beam="1">  1       21 0.39298223E-01 0.32225587E+02</pdfrwt>
<pdfrwt beam="2">  1       21 0.68494091E-03 0.32225587E+02</pdfrwt>
<totfact> 0.34263388E+07</totfact>
</mgrwt>
</event>
<event>
 4    1  0.7499963E+004  0.2010972E+02  0.7546771E-02  0.1743155E+00
         21   -1    0    0  501  502  0.00000000000E+00  0.00000000000E+00  0.98807602741E+01  0.98807602741E+01  0.00000000000E+00 0. -1.
         21   -1    0    0  502  503 -0.00000000000E+00 -0.00000000000E+00 -0.41251216419E+02  0.41251216419E+02  0.00000000000E+00 0. -1.
          3    1    1    2  501    0  0.20068737197E+02  0.12831985015E+01 -0.17947887541E+02  0.26954173670E+02  0.00000000000E+00 0. -1.
         -3    1    1    2    0  503 -0.20068737197E+02 -0.12831985015E+01 -0.13422568604E+02  0.24177803023E+02  0.00000000000E+00 0.  1.
<mgrwt>
<rscale>  2 0.20109719E+02</rscale>
<asrwt>0</asrwt>
<pdfrwt beam="1">  1       21 0.15201170E-02 0.20109719E+02</pdfrwt>
<pdfrwt beam="2">  1       21 0.63463410E-02 0.20109719E+02</pdfrwt>
<totfact> 0.21319958E+08</totfact>
</mgrwt>
</event>
<event>
 4    1  0.7499963E+004  0.2159992E+02  0.7546771E-02  0.1715265E+00
         21   -1    0    0  503  502  0.00000000000E+00  0.00000000000E+00  0.24486280390E+02  0.24486280390E+02  0.00000000000E+00 0.  1.
         21   -1    0    0  501  503 -0.00000000000E+00 -0.00000000000E+00 -0.19554262629E+02  0.19554262629E+02  0.00000000000E+00 0.  1.
          1    1    1    2  501    0  0.17722987206E+02 -0.12347147716E+02 -0.10568407085E+01  0.21625754195E+02  0.00000000000E+00 0. -1.
         -1    1    1    2    0  502 -0.17722987206E+02  0.12347147716E+02  0.59888584695E+01  0.22414788824E+02  0.00000000000E+00 0.  1.
<mgrwt>
<rscale>  2 0.21599915E+02</rscale>
<asrwt>0</asrwt>
<pdfrwt beam="1">  1       21 0.37671200E-02 0.21599915E+02</pdfrwt>
<pdfrwt beam="2">  1       21 0.30083481E-02 0.21599915E+02</pdfrwt>
<totfact> 0.17511287E+08</totfact>
</mgrwt>
</event>
<event>
 4    1  0.7499963E+004  0.2060633E+02  0.7546771E-02  0.1733532E+00
         21   -1    0    0  503  502  0.00000000000E+00  0.00000000000E+00  0.14884382914E+03  0.14884382914E+03  0.00000000000E+00 0.  1.
         21   -1    0    0  501  503 -0.00000000000E+00 -0.00000000000E+00 -0.29558604583E+01  0.29558604583E+01  0.00000000000E+00 0.  1.
          5    1    1    2  501    0  0.20334207660E+02  0.33377908216E+01  0.58771151474E+02  0.62278961892E+02  0.00000000000E+00 0. -1.
         -5    1    1    2    0  502 -0.20334207660E+02 -0.33377908216E+01  0.87116817212E+02  0.89520727711E+02  0.00000000000E+00 0.  1.
<mgrwt>
<rscale>  2 0.20606330E+02</rscale>
<asrwt>0</asrwt>
<pdfrwt beam="1">  1       21 0.22899045E-01 0.20606330E+02</pdfrwt>
<pdfrwt beam="2">  1       21 0.45474788E-03 0.20606330E+02</pdfrwt>
<totfact> 0.15169275E+08</totfact>
</mgrwt>
</event>
<event>
 4    1  0.7499963E+004  0.2768577E+02  0.7546771E-02  0.1625175E+00
         21   -1    0    0  501  502  0.00000000000E+00  0.00000000000E+00  0.33363665211E+01  0.33363665211E+01  0.00000000000E+00 0. -1.
         21   -1    0    0  502  503 -0.00000000000E+00 -0.00000000000E+00 -0.22974154025E+03  0.22974154025E+03  0.00000000000E+00 0. -1.
          1    1    1    2  501    0  0.21754505875E+01 -0.27600167869E+02 -0.11315427852E+03  0.11649202805E+03  0.00000000000E+00 0. -1.
         -1    1    1    2    0  503 -0.21754505875E+01  0.27600167869E+02 -0.11325089520E+03  0.11658587872E+03  0.00000000000E+00 0.  1.
<mgrwt>
<rscale>  2 0.27685770E+02</rscale>
<asrwt>0</asrwt>
<pdfrwt beam="1">  1       21 0.51328709E-03 0.27685770E+02</pdfrwt>
<pdfrwt beam="2">  1       21 0.35344857E-01 0.27685770E+02</pdfrwt>
<totfact> 0.62431856E+07</totfact>
</mgrwt>
</event>
<event>
 4    1  0.7499963E+004  0.2440769E+02  0.7546771E-02  0.1669658E+00
         21   -1    0    0  503  502  0.00000000000E+00  0.00000000000E+00  0.11186726834E+02  0.11186726834E+02  0.00000000000E+00 0. -1.
         21   -1    0    0  501  503 -0.00000000000E+00 -0.00000000000E+00 -0.54456609525E+02  0.54456609525E+02  0.00000000000E+00 0. -1.
          4    1    1    2  501    0  0.15918083062E+02 -0.18502701178E+02 -0.26512922776E+02  0.36037069711E+02  0.00000000000E+00 0. -1.
         -4    1    1    2    0  502 -0.15918083062E+02  0.18502701178E+02 -0.16756959915E+02  0.29606266648E+02  0.00000000000E+00 0.  1.
<mgrwt>
<rscale>  2 0.24407690E+02</rscale>
<asrwt>0</asrwt>
<pdfrwt beam="1">  1       21 0.17210349E-02 0.24407690E+02</pdfrwt>
<pdfrwt beam="2">  1       21 0.83779398E-02 0.24407690E+02</pdfrwt>
<totfact> 0.11944075E+08</totfact>
</mgrwt>
</event>
<event>
 4    1  0.7499963E+004  0.2086487E+02  0.7546771E-02  0.1728657E+00
         21   -1    0    0  503  502  0.00000000000E+00  0.00000000000E+00  0.50485825004E+03  0.50485825004E+03  0.00000000000E+00 0.  1.
         21   -1    0    0  501  503 -0.00000000000E+00 -0.00000000000E+00 -0.86479346670E+00  0.86479346670E+00  0.00000000000E+00 0.  1.
          1    1    1    2  501    0  0.17523563804E+02  0.11325521974E+02  0.26555578250E+03  0.26637420362E+03  0.00000000000E+00 0.  1.
         -1    1    1    2    0  502 -0.17523563804E+02 -0.11325521974E+02  0.23843767408E+03  0.23934883989E+03  0.00000000000E+00 0. -1.
<mgrwt>
<rscale>  2 0.20864868E+02</rscale>
<asrwt>0</asrwt>
<pdfrwt beam="1">  1       21 0.77670264E-01 0.20864868E+02</pdfrwt>
<pdfrwt beam="2">  1       21 0.13304555E-03 0.20864868E+02</pdfrwt>
<totfact> 0.88499178E+07</totfact>
</mgrwt>
</event>
<event>
 4    1  0.7499963E+004  0.2508402E+02  0.7546771E-02  0.1659798E+00
         21   -1    0    0  503  502  0.00000000000E+00  0.00000000000E+00  0.84631666163E+01  0.84631666163E+01  0.00000000000E+00 0.  1.
         21   -1    0    0  501  503 -0.00000000000E+00 -0.00000000000E+00 -0.90458223998E+02  0.90458223998E+02  0.00000000000E+00 0.  1.
          4    1    1    2  501    0  0.24997389333E+02 -0.20828997797E+01 -0.20123542148E+02  0.32158434252E+02  0.00000000000E+00 0.  1.
         -4    1    1    2    0  502 -0.24997389333E+02  0.20828997797E+01 -0.61871515234E+02  0.66762956363E+02  0.00000000000E+00 0. -1.
<mgrwt>
<rscale>  2 0.25084018E+02</rscale>
<asrwt>0</asrwt>
<pdfrwt beam="1">  1       21 0.13020256E-02 0.25084018E+02</pdfrwt>
<pdfrwt beam="2">  1       21 0.13916650E-01 0.25084018E+02</pdfrwt>
<totfact> 0.78934832E+07</totfact>
</mgrwt>
</event>
<event>
 4    1  0.7499963E+004  0.2106545E+02  0.7546771E-02  0.1724934E+00
         21   -1    0    0  501  502  0.00000000000E+00  0.00000000000E+00  0.41208944749E+03  0.41208944749E+03  0.00000000000E+00 0.  1.
         21   -1    0    0  502  503 -0.00000000000E+00 -0.00000000000E+00 -0.13099782542E+01  0.13099782542E+01  0.00000000000E+00 0.  1.
          4    1    1    2  501    0  0.18221084006E+02  0.10570968059E+02  0.11818959906E+03  0.12005221611E+03  0.00000000000E+00 0. -1.
         -4    1    1    2    0  503 -0.18221084006E+02 -0.10570968059E+02  0.29258987018E+03  0.29334720963E+03  0.00000000000E+00 0.  1.
<mgrwt>
<rscale>  2 0.21065452E+02</rscale>
<asrwt>0</asrwt>
<pdfrwt beam="1">  1       21 0.63398273E-01 0.21065452E+02</pdfrwt>
<pdfrwt beam="2">  1       21 0.20153545E-03 0.21065452E+02</pdfrwt>
<totfact> 0.74070982E+07</totfact>
</mgrwt>
</event>
<event>
 4    1  0.7499963E+004  0.2524058E+02  0.7546771E-02  0.1657570E+00
         21   -1    0    0  503  502  0.00000000000E+00  0.00000000000E+00  0.16221240896E+03  0.16221240896E+03  0.00000000000E+00 0. -1.
         21   -1    0    0  501  503 -0.00000000000E+00 -0.00000000000E+00 -0.53328817563E+01  0.53328817563E+01  0.00000000000E+00 0. -1.
          2    1    1    2  501    0  0.24356001606E+02  0.66235911336E+01  0.12144494203E+03  0.12404015768E+03  0.00000000000E+00 0.  1.
         -2    1    1    2    0  502 -0.24356001606E+02 -0.66235911336E+01  0.35434585178E+02  0.43505133036E+02  0.00000000000E+00 0. -1.
<mgrwt>
<rscale>  2 0.25240578E+02</rscale>
<asrwt>0</asrwt>
<pdfrwt beam="1">  1       21 0.24955751E-01 0.25240578E+02</pdfrwt>
<pdfrwt beam="2">  1       21 0.82044347E-03 0.25240578E+02</pdfrwt>
<totfact> 0.57367754E+07</totfact>
</mgrwt>
</event>
<event>
 4    1  0.7499963E+004  0.3230996E+02  0.7546771E-02  0.1573874E+00
         21   -1    0    0  501  502  0.00000000000E+00  0.00000000000E+00  0.67963022745E+01  0.67963022745E+01  0.00000000000E+00 0. -1.
         21   -1    0    0  502  503 -0.00000000000E+00 -0.00000000000E+00 -0.16955958177E+03  0.16955958177E+03  0.00000000000E+00 0. -1.
          3    1    1    2  501    0  0.24823728486E+02 -0.20681298136E+02 -0.54331695269E+02  0.63212868147E+02  0.00000000000E+00 0.  1.
         -3    1    1    2    0  503 -0.24823728486E+02  0.20681298136E+02 -0.10843158422E+03  0.11314301590E+03  0.00000000000E+00 0. -1.
<mgrwt>
<rscale>  2 0.32309961E+02</rscale>
<asrwt>0</asrwt>
<pdfrwt beam="1">  1       21 0.10455849E-02 0.32309961E+02</pdfrwt>
<pdfrwt beam="2">  1       21 0.26086090E-01 0.32309961E+02</pdfrwt>
<totfact> 0.38738991E+07</totfact>
</mgrwt>
</event>
<event>
 4    1  0.7499963E+004  0.2028680E+02  0.7546771E-02  0.1739684E+00
         21   -1    0    0  501  502  0.00000000000E+00  0.00000000000E+00  0.33685089569E+02  0.33685089569E+02  0.00000000000E+00 0. -1.
         21   -1    0    0  502  503 -0.00000000000E+00 -0.00000000000E+00 -0.14149928543E+02  0.14149928543E+02  0.00000000000E+00 0. -1.
          4    1    1    2  501    0  0.90419802358E+01 -0.18160307810E+02  0.92928512251E+00  0.20308071233E+02  0.00000000000E+00 0.  1.
         -4    1    1    2    0  503 -0.90419802358E+01  0.18160307810E+02  0.18605875903E+02  0.27526946879E+02  0.00000000000E+00 0. -1.
<mgrwt>
<rscale>  2 0.20286798E+02</rscale>
<asrwt>0</asrwt>
<pdfrwt beam="1">  1       21 0.51823215E-02 0.20286798E+02</pdfrwt>
<pdfrwt beam="2">  1       21 0.21769121E-02 0.20286798E+02</pdfrwt>
<totfact> 0.17098430E+08</totfact>
</mgrwt>
</event>
<event>
 4    1  0.7499963E+004  0.2742687E+02  0.7546771E-02  0.1628407E+00
         21   -1    0    0  501  502  0.00000000000E+00  0.00000000000E+00  0.29175303440E+02  0.29175303440E+02  0.00000000000E+00 0.  1.
         21   -1    0    0  502  503 -0.00000000000E+00 -0.00000000000E+00 -0.26182877416E+02  0.26182877416E+02  0.00000000000E+00 0.  1.
          1    1    1    2  501    0  0.12476787647E+02 -0.24424638718E+02  0.49159144890E+01  0.27863944835E+02  0.00000000000E+00 0. -1.
         -1    1    1    2    0  503 -0.12476787647E+02  0.24424638718E+02 -0.19234884656E+01  0.27494236021E+02  0.00000000000E+00 0.  1.
<mgrwt>
<rscale>  2 0.27426870E+02</rscale>
<asrwt>0</asrwt>
<pdfrwt beam="1">  1       21 0.44885082E-02 0.27426870E+02</pdfrwt>
<pdfrwt beam="2">  1       21 0.40281350E-02 0.27426870E+02</pdfrwt>
<totfact> 0.89871793E+07</totfact>
</mgrwt>
</event>
<event>
 4    1  0.7499963E+004  0.2114228E+02  0.7546771E-02  0.1723522E+00
         21   -1    0    0  503  502  0.00000000000E+00  0.00000000000E+00  0.53065257048E+00  0.53065257048E+00  0.00000000000E+00 0.  1.
         21   -1    0    0  501  503 -0.00000000000E+00 -0.00000000000E+00 -0.85149047377E+03  0.85149047377E+03  0.00000000000E+00 0.  1.
          3    1    1    2  501    0  0.12616795131E+02 -0.16965032585E+02 -0.46961514103E+03  0.47009081732E+03  0.00000000000E+00 0.  1.
         -3    1    1    2    0  502 -0.12616795131E+02  0.16965032585E+02 -0.38134468017E+03  0.38193030901E+03  0.00000000000E+00 0. -1.
<mgrwt>
<rscale>  2 0.21142276E+02</rscale>
<asrwt>0</asrwt>
<pdfrwt beam="1">  1       21 0.81638596E-04 0.21142276E+02</pdfrwt>
<pdfrwt beam="2">  1       21 0.13099895E+00 0.21142276E+02</pdfrwt>
<totfact> 0.56790269E+07</totfact>
</mgrwt>
</event>
<event>
 4    1  0.7499963E+004  0.2365989E+02  0.7546771E-02  0.1681031E+00
         21   -1    0    0  501  502  0.00000000000E+00  0.00000000000E+00  0.51942097359E+02  0.51942097359E+02  0.00000000000E+00 0.  1.
         21   -1    0    0  502  503 -0.00000000000E+00 -0.00000000000E+00 -0.11324993046E+02  0.11324993046E+02  0.00000000000E+00 0.  1.
          5    1    1    2  501    0 -0.23549036168E+02 -0.22876484010E+01  0.27265786515E+02  0.36100049224E+02  0.00000000000E+00 0. -1.
         -5    1    1    2    0  503  0.23549036168E+02  0.22876484010E+01  0.13351317797E+02  0.27167041182E+02  0.00000000000E+00 0.  1.
<mgrwt>
<rscale>  2 0.23659891E+02</rscale>
<asrwt>0</asrwt>
<pdfrwt beam="1">  1       21 0.79910918E-02 0.23659891E+02</pdfrwt>
<pdfrwt beam="2">  1       21 0.17423067E-02 0.23659891E+02</pdfrwt>
<totfact> 0.12550385E+08</totfact>
</mgrwt>
</event>
<event>
 4    1  0.7499963E+004  0.2140809E+02  0.7546771E-02  0.1718695E+00
         21   -1    0    0  501  502  0.00000000000E+00  0.00000000000E+00  0.42183131749E+03  0.42183131749E+03  0.00000000000E+00 0. -1.
         21   -1    0    0  502  503 -0.00000000000E+00 -0.00000000000E+00 -0.13394693387E+01  0.13394693387E+01  0.00000000000E+00 0. -1.
          1    1    1    2  501    0 -0.10912609828E+02  0.18417954814E+02  0.11828974049E+03  0.12021135062E+03  0.00000000000E+00 0. -1.
         -1    1    1    2    0  503  0.10912609828E+02 -0.18417954814E+02  0.30220210766E+03  0.30295943620E+03  0.00000000000E+00 0.  1.
<mgrwt>
<rscale>  2 0.21408085E+02</rscale>
<asrwt>0</asrwt>
<pdfrwt beam="1">  1       21 0.64897020E-01 0.21408085E+02</pdfrwt>
<pdfrwt beam="2">  1       21 0.20607254E-03 0.21408085E+02</pdfrwt>
<totfact> 0.68713753E+07</totfact>
</mgrwt>
</event>
<event>
 4    1  0.7499963E+004  0.2022031E+02  0.7546771E-02  0.1740982E+00
         21   -1    0    0  501  502  0.00000000000E+00  0.00000000000E+00  0.18745446088E+01  0.18745446088E+01  0.00000000000E+00 0.  1.
         21   -1    0    0  502  503 -0.00000000000E+00 -0.00000000000E+00 -0.25329733338E+03  0.25329733338E+03  0.00000000000E+00 0.  1.
          2    1    1    2  501    0 -0.40263937076E+01 -0.19815371321E+02 -0.78159484140E+02  0.80732680792E+02  0.00000000000E+00 0.  1.
         -2    1    1    2    0  503  0.40263937076E+01  0.19815371321E+02 -0.17326330463E+03  0.17443919720E+03  0.00000000000E+00 0. -1.
<mgrwt>
<rscale>  2 0.20220306E+02</rscale>
<asrwt>0</asrwt>
<pdfrwt beam="1">  1       21 0.28839143E-03 0.20220306E+02</pdfrwt>
<pdfrwt beam="2">  1       21 0.38968828E-01 0.20220306E+02</pdfrwt>
<totfact> 0.11193743E+08</totfact>
</mgrwt>
</event>
<event>
 4    1  0.7499963E+004  0.2699417E+02  0.7546771E-02  0.1633908E+00
         21   -1    0    0  501  502  0.00000000000E+00  0.00000000000E+00  0.11610378030E+03  0.11610378030E+03  0.00000000000E+00 0. -1.
         21   -1    0    0  502  503 -0.00000000000E+00 -0.00000000000E+00 -0.16936312883E+02  0.16936312883E+02  0.00000000000E+00 0. -1.
          1    1    1    2  501    0  0.17658371633E+01  0.26936348062E+02 -0.31908699652E+01  0.27182102180E+02  0.00000000000E+00 0. -1.
         -1    1    1    2    0  503 -0.17658371633E+01 -0.26936348062E+02  0.10235833739E+03  0.10585799101E+03  0.00000000000E+00 0.  1.
<mgrwt>
<rscale>  2 0.26994167E+02</rscale>
<asrwt>0</asrwt>
<pdfrwt beam="1">  1       21 0.17862120E-01 0.26994167E+02</pdfrwt>
<pdfrwt beam="2">  1       21 0.26055867E-02 0.26994167E+02</pdfrwt>
<totfact> 0.17985223E+07</totfact>
</mgrwt>
</event>
<event>
 4    1  0.7499963E+004  0.2170049E+02  0.7546771E-02  0.1713484E+00
         21   -1    0    0  501  502  0.00000000000E+00  0.00000000000E+00  0.61582238670E+02  0.61582238670E+02  0.00000000000E+00 0. -1.
         21   -1    0    0  502  503 -0.00000000000E+00 -0.00000000000E+00 -0.13679514641E+02  0.13679514641E+02  0.00000000000E+00 0. -1.
          2    1    1    2  501    0  0.12570020670E+02 -0.17689141082E+02  0.48941174911E+02  0.53536433702E+02  0.00000000000E+00 0. -1.
         -2    1    1    2    0  503 -0.12570020670E+02  0.17689141082E+02 -0.10384508823E+01  0.21725319609E+02  0.00000000000E+00 0.  1.
<mgrwt>
<rscale>  2 0.21700487E+02</rscale>
<asrwt>0</asrwt>
<pdfrwt beam="1">  1       21 0.94741904E-02 0.21700487E+02</pdfrwt>
<pdfrwt beam="2">  1       21 0.21045407E-02 0.21700487E+02</pdfrwt>
<totfact> 0.69375040E+07</totfact>
</mgrwt>
</event>
<event>
 4    1  0.7499963E+004  0.2896179E+02  0.7546771E-02  0.1609857E+00
         21   -1    0    0  501  502  0.00000000000E+00  0.00000000000E+00  0.44013305672E+02  0.44013305672E+02  0.00000000000E+00 0. -1.
         21   -1    0    0  502  503 -0.00000000000E+00 -0.00000000000E+00 -0.19069498195E+02  0.19069498195E+02  0.00000000000E+00 0. -1.
          5    1    1    2  501    0  0.11635007609E+02 -0.26521912908E+02  0.11682004260E+02  0.31229064826E+02  0.00000000000E+00 0. -1.
         -5    1    1    2    0  503 -0.11635007609E+02  0.26521912908E+02  0.13261803217E+02  0.31853739041E+02  0.00000000000E+00 0.  1.
<mgrwt>
<rscale>  2 0.28961790E+02</rscale>
<asrwt>0</asrwt>
<pdfrwt beam="1">  1       21 0.67712778E-02 0.28961790E+02</pdfrwt>
<pdfrwt beam="2">  1       21 0.29337690E-02 0.28961790E+02</pdfrwt>
<totfact> 0.77435068E+07</totfact>
</mgrwt>
</event>
<event>
 4    1  0.7499963E+004  0.2048063E+02  0.7546771E-02  0.1735936E+00
         21   -1    0    0  503  502  0.00000000000E+00  0.00000000000E+00  0.91929067501E+00  0.91929067501E+00  0.00000000000E+00 0.  1.
         21   -1    0    0  501  503 -0.00000000000E+00 -0.00000000000E+00 -0.46152210240E+03  0.46152210240E+03  0.00000000000E+00 0.  1.
          2    1    1    2  501    0  0.10871892722E+02  0.17356789482E+02 -0.20566473074E+03  0.20668197228E+03  0.00000000000E+00 0. -1.
         -2    1    1    2    0  502 -0.10871892722E+02 -0.17356789482E+02 -0.25493808098E+03  0.25575942080E+03  0.00000000000E+00 0.  1.
<mgrwt>
<rscale>  2 0.20480630E+02</rscale>
<asrwt>0</asrwt>
<pdfrwt beam="1">  1       21 0.14142918E-03 0.20480630E+02</pdfrwt>
<pdfrwt beam="2">  1       21 0.71003479E-01 0.20480630E+02</pdfrwt>
<totfact> 0.97116128E+07</totfact>
</mgrwt>
</event>
<event>
 4    1  0.7499963E+004  0.2725780E+02  0.7546771E-02  0.1630541E+00
         21   -1    0    0  501  502  0.00000000000E+00  0.00000000000E+00  0.87671716959E+01  0.87671716959E+01  0.00000000000E+00 0.  1.
         21   -1    0    0  502  503 -0.00000000000E+00 -0.00000000000E+00 -0.84747011100E+02  0.84747011100E+02  0.00000000000E+00 0.  1.
          5    1    1    2  501    0 -0.21592659531E+02 -0.16635648931E+02 -0.37883677193E+02  0.46670769852E+02  0.00000000000E+00 0. -1.
         -5    1    1    2    0  503  0.21592659531E+02  0.16635648931E+02 -0.38096162211E+02  0.46843412943E+02  0.00000000000E+00 0.  1.
<mgrwt>
<rscale>  2 0.27257802E+02</rscale>
<asrwt>0</asrwt>
<pdfrwt beam="1">  1       21 0.13487956E-02 0.27257802E+02</pdfrwt>
<pdfrwt beam="2">  1       21 0.13038002E-01 0.27257802E+02</pdfrwt>
<totfact> 0.85333039E+07</totfact>
</mgrwt>
</event>
<event>
 4    1  0.7499963E+004  0.2266529E+02  0.7546771E-02  0.1696994E+00
         21   -1    0    0  501  502  0.00000000000E+00  0.00000000000E+00  0.20905231083E+03  0.20905231083E+03  0.00000000000E+00 0.  1.
         21   -1    0    0  502  503 -0.00000000000E+00 -0.00000000000E+00 -0.24863213907E+01  0.24863213907E+01  0.00000000000E+00 0.  1.
          1    1    1    2  501    0  0.20527430589E+02  0.96093587519E+01  0.11469989749E+03  0.11691784152E+03  0.00000000000E+00 0.  1.
         -1    1    1    2    0  503 -0.20527430589E+02 -0.96093587519E+01  0.91866091949E+02  0.94620790697E+02  0.00000000000E+00 0. -1.
<mgrwt>
<rscale>  2 0.22665286E+02</rscale>
<asrwt>0</asrwt>
<pdfrwt beam="1">  1       21 0.32161880E-01 0.22665286E+02</pdfrwt>
<pdfrwt beam="2">  1       21 0.38251115E-03 0.22665286E+02</pdfrwt>
<totfact> 0.10917444E+08</totfact>
</mgrwt>
</event>
<event>
 4    1  0.7499963E+004  0.2458955E+02  0.7546771E-02  0.1666968E+00
         21   -1    0    0  501  502  0.00000000000E+00  0.00000000000E+00  0.14968242627E+04  0.14968242627E+04  0.00000000000E+00 0.  1.
         21   -1    0    0  502  503 -0.00000000000E+00 -0.00000000000E+00 -0.50088934973E+00  0.50088934973E+00  0.00000000000E+00 0.  1.
          5    1    1    2  501    0  0.63150527792E+01 -0.23764806919E+02  0.41881020487E+03  0.41953144536E+03  0.00000000000E+00 0. -1.
         -5    1    1    2    0  503 -0.63150527792E+01  0.23764806919E+02  0.10775131684E+04  0.10777937066E+04  0.00000000000E+00 0.  1.
<mgrwt>
<rscale>  2 0.24589549E+02</rscale>
<asrwt>0</asrwt>
<pdfrwt beam="1">  1       21 0.23027707E+00 0.24589549E+02</pdfrwt>
<pdfrwt beam="2">  1       21 0.77061098E-04 0.24589549E+02</pdfrwt>
<totfact> 0.15607419E+07</totfact>
</mgrwt>
</event>
<event>
 4    1  0.7499963E+004  0.2575366E+02  0.7546771E-02  0.1650407E+00
         21   -1    0    0  503  502  0.00000000000E+00  0.00000000000E+00  0.93801110187E+02  0.93801110187E+02  0.00000000000E+00 0. -1.
         21   -1    0    0  501  503 -0.00000000000E+00 -0.00000000000E+00 -0.72293672738E+01  0.72293672738E+01  0.00000000000E+00 0. -1.
          4    1    1    2  501    0  0.64873250744E+01  0.24923196028E+02  0.50766652932E+02  0.56925426101E+02  0.00000000000E+00 0.  1.
         -4    1    1    2    0  502 -0.64873250744E+01 -0.24923196028E+02  0.35805089982E+02  0.44105051360E+02  0.00000000000E+00 0. -1.
<mgrwt>
<rscale>  2 0.25753662E+02</rscale>
<asrwt>0</asrwt>
<pdfrwt beam="1">  1       21 0.14430939E-01 0.25753662E+02</pdfrwt>
<pdfrwt beam="2">  1       21 0.11122104E-02 0.25753662E+02</pdfrwt>
<totfact> 0.94850810E+07</totfact>
</mgrwt>
</event>
<event>
 4    1  0.7499963E+004  0.4891622E+02  0.7546771E-02  0.1451276E+00
         21   -1    0    0  501  502  0.00000000000E+00  0.00000000000E+00  0.64610464699E+02  0.64610464699E+02  0.00000000000E+00 0. -1.
         21   -1    0    0  502  503 -0.00000000000E+00 -0.00000000000E+00 -0.56409514469E+02  0.56409514469E+02  0.00000000000E+00 0. -1.
          2    1    1    2  501    0  0.46685589702E+02 -0.14603154668E+02 -0.31362515498E+02  0.58106830841E+02  0.00000000000E+00 0.  1.
         -2    1    1    2    0  503 -0.46685589702E+02  0.14603154668E+02  0.39563465727E+02  0.62913148327E+02  0.00000000000E+00 0. -1.
<mgrwt>
<rscale>  2 0.48916218E+02</rscale>
<asrwt>0</asrwt>
<pdfrwt beam="1">  1       21 0.99400715E-02 0.48916218E+02</pdfrwt>
<pdfrwt beam="2">  1       21 0.86783869E-02 0.48916218E+02</pdfrwt>
<totfact> 0.76978388E+06</totfact>
</mgrwt>
</event>
<event>
 4    1  0.7499963E+004  0.2322472E+02  0.7546771E-02  0.1687893E+00
         21   -1    0    0  501  502  0.00000000000E+00  0.00000000000E+00  0.20324487006E+03  0.20324487006E+03  0.00000000000E+00 0. -1.
         21   -1    0    0  502  503 -0.00000000000E+00 -0.00000000000E+00 -0.28983197121E+01  0.28983197121E+01  0.00000000000E+00 0. -1.
          2    1    1    2  501    0 -0.58285404935E+01  0.22481454437E+02  0.13010632280E+03  0.13216294076E+03  0.00000000000E+00 0.  1.
         -2    1    1    2    0  503  0.58285404935E+01 -0.22481454437E+02  0.70240227546E+02  0.73980249010E+02  0.00000000000E+00 0. -1.
<mgrwt>
<rscale>  2 0.23224721E+02</rscale>
<asrwt>0</asrwt>
<pdfrwt beam="1">  1       21 0.31268430E-01 0.23224721E+02</pdfrwt>
<pdfrwt beam="2">  1       21 0.44589550E-03 0.23224721E+02</pdfrwt>
<totfact> 0.92387988E+07</totfact>
</mgrwt>
</event>
<event>
 4    1  0.7499963E+004  0.2439766E+02  0.7546771E-02  0.1669807E+00
         21   -1    0    0  501  502  0.00000000000E+00  0.00000000000E+00  0.91118626291E+01  0.91118626291E+01  0.00000000000E+00 0.  1.
         21   -1    0    0  502  503 -0.00000000000E+00 -0.00000000000E+00 -0.70771484099E+02  0.70771484099E+02  0.00000000000E+00 0.  1.
          5    1    1    2  501    0 -0.24394877913E+02  0.36872003542E+00 -0.19750934167E+02  0.31390212222E+02  0.00000000000E+00 0. -1.
         -5    1    1    2    0  503  0.24394877913E+02 -0.36872003542E+00 -0.41908687302E+02  0.48493134506E+02  0.00000000000E+00 0.  1.
<mgrwt>
<rscale>  2 0.24397664E+02</rscale>
<asrwt>0</asrwt>
<pdfrwt beam="1">  1       21 0.14018250E-02 0.24397664E+02</pdfrwt>
<pdfrwt beam="2">  1       21 0.10887921E-01 0.24397664E+02</pdfrwt>
<totfact> 0.10587435E+08</totfact>
</mgrwt>
</event>
<event>
 4    1  0.7499963E+004  0.2455952E+02  0.7546771E-02  0.1667410E+00
         21   -1    0    0  503  502  0.00000000000E+00  0.00000000000E+00  0.99137070489E+03  0.99137070489E+03  0.00000000000E+00 0.  1.
         21   -1    0    0  501  503 -0.00000000000E+00 -0.00000000000E+00 -0.66893572740E+00  0.66893572740E+00  0.00000000000E+00 0.  1.
          2    1    1    2  501    0 -0.24520875324E+02  0.13771850059E+01  0.64454106405E+03  0.64500880088E+03  0.00000000000E+00 0.  1.
         -2    1    1    2    0  502  0.24520875324E+02 -0.13771850059E+01  0.34616070510E+03  0.34703083973E+03  0.00000000000E+00 0. -1.
<mgrwt>
<rscale>  2 0.24559519E+02</rscale>
<asrwt>0</asrwt>
<pdfrwt beam="1">  1       21 0.15251739E+00 0.24559519E+02</pdfrwt>
<pdfrwt beam="2">  1       21 0.10291398E-03 0.24559519E+02</pdfrwt>
<totfact> 0.29489330E+07</totfact>
</mgrwt>
</event>
<event>
 4    1  0.7499963E+004  0.2012730E+02  0.7546771E-02  0.1742808E+00
         21   -1    0    0  501  502  0.00000000000E+00  0.00000000000E+00  0.88389910608E+01  0.88389910608E+01  0.00000000000E+00 0. -1.
         21   -1    0    0  502  503 -0.00000000000E+00 -0.00000000000E+00 -0.53616835401E+02  0.53616835401E+02  0.00000000000E+00 0. -1.
          1    1    1    2  501    0  0.19534752221E+02  0.48478550201E+01 -0.10489706358E+02  0.22696743865E+02  0.00000000000E+00 0.  1.
         -1    1    1    2    0  503 -0.19534752221E+02 -0.48478550201E+01 -0.34288137983E+02  0.39759082597E+02  0.00000000000E+00 0. -1.
<mgrwt>
<rscale>  2 0.20127301E+02</rscale>
<asrwt>0</asrwt>
<pdfrwt beam="1">  1       21 0.13598448E-02 0.20127301E+02</pdfrwt>
<pdfrwt beam="2">  1       21 0.82487437E-02 0.20127301E+02</pdfrwt>
<totfact> 0.16530357E+08</totfact>
</mgrwt>
</event>
<event>
 4    1  0.7499963E+004  0.2352733E+02  0.7546771E-02  0.1683102E+00
         21   -1    0    0  503  502  0.00000000000E+00  0.00000000000E+00  0.23662677232E+01  0.23662677232E+01  0.00000000000E+00 0.  1.
         21   -1    0    0  501  503 -0.00000000000E+00 -0.00000000000E+00 -0.27696891763E+03  0.27696891763E+03  0.00000000000E+00 0.  1.
          5    1    1    2  501    0  0.15265529487E+02  0.17902481326E+02 -0.82242983391E+02  0.85542057172E+02  0.00000000000E+00 0. -1.
         -5    1    1    2    0  502 -0.15265529487E+02 -0.17902481326E+02 -0.19235966651E+03  0.19379312818E+03  0.00000000000E+00 0.  1.
<mgrwt>
<rscale>  2 0.23527329E+02</rscale>
<asrwt>0</asrwt>
<pdfrwt beam="1">  1       21 0.36404143E-03 0.23527329E+02</pdfrwt>
<pdfrwt beam="2">  1       21 0.42610574E-01 0.23527329E+02</pdfrwt>
<totfact> 0.70117452E+07</totfact>
</mgrwt>
</event>
<event>
 4    1  0.7499963E+004  0.2149052E+02  0.7546771E-02  0.1717215E+00
         21   -1    0    0  501  502  0.00000000000E+00  0.00000000000E+00  0.41851140668E+01  0.41851140668E+01  0.00000000000E+00 0. -1.
         21   -1    0    0  502  503 -0.00000000000E+00 -0.00000000000E+00 -0.11436827097E+03  0.11436827097E+03  0.00000000000E+00 0. -1.
          2    1    1    2  501    0 -0.14239593337E+02 -0.16095850727E+02 -0.43985625313E+02  0.48954853316E+02  0.00000000000E+00 0. -1.
         -2    1    1    2    0  503  0.14239593337E+02  0.16095850727E+02 -0.66197531590E+02  0.69598531720E+02  0.00000000000E+00 0.  1.
<mgrwt>
<rscale>  2 0.21490520E+02</rscale>
<asrwt>0</asrwt>
<pdfrwt beam="1">  1       21 0.64386366E-03 0.21490520E+02</pdfrwt>
<pdfrwt beam="2">  1       21 0.17595120E-01 0.21490520E+02</pdfrwt>
<totfact> 0.14549858E+08</totfact>
</mgrwt>
</event>
<event>
 4    1  0.7499963E+004  0.2021570E+02  0.7546771E-02  0.1741072E+00
         21   -1    0    0  501  502  0.00000000000E+00  0.00000000000E+00  0.17606247300E+02  0.17606247300E+02  0.00000000000E+00 0.  1.
         21   -1    0    0  502  503 -0.00000000000E+00 -0.00000000000E+00 -0.23890738604E+02  0.23890738604E+02  0.00000000000E+00 0.  1.
          1    1    1    2  501    0 -0.21192641843E+01 -0.20104311478E+02  0.35520797667E+00  0.20218822750E+02  0.00000000000E+00 0.  1.
         -1    1    1    2    0  503  0.21192641843E+01  0.20104311478E+02 -0.66396992808E+01  0.21278163154E+02  0.00000000000E+00 0. -1.
<mgrwt>
<rscale>  2 0.20215702E+02</rscale>
<asrwt>0</asrwt>
<pdfrwt beam="1">  1       21 0.27086534E-02 0.20215702E+02</pdfrwt>
<pdfrwt beam="2">  1       21 0.36754982E-02 0.20215702E+02</pdfrwt>
<totfact> 0.20960370E+08</totfact>
</mgrwt>
</event>
<event>
 4    1  0.7499963E+004  0.2029291E+02  0.7546771E-02  0.1739565E+00
         21   -1    0    0  503  502  0.00000000000E+00  0.00000000000E+00  0.28389423105E+02  0.28389423105E+02  0.00000000000E+00 0. -1.
         21   -1    0    0  501  503 -0.00000000000E+00 -0.00000000000E+00 -0.15002603277E+02  0.15002603277E+02  0.00000000000E+00 0. -1.
          1    1    1    2  501    0 -0.11979868833E+02  0.16379403980E+02  0.27440214002E+01  0.20477592276E+02  0.00000000000E+00 0. -1.
         -1    1    1    2    0  502  0.11979868833E+02 -0.16379403980E+02  0.10642798428E+02  0.22914434105E+02  0.00000000000E+00 0.  1.
<mgrwt>
<rscale>  2 0.20292908E+02</rscale>
<asrwt>0</asrwt>
<pdfrwt beam="1">  1       21 0.43676035E-02 0.20292908E+02</pdfrwt>
<pdfrwt beam="2">  1       21 0.23080928E-02 0.20292908E+02</pdfrwt>
<totfact> 0.20484323E+08</totfact>
</mgrwt>
</event>
<event>
 4    1  0.7499963E+004  0.2473457E+02  0.7546771E-02  0.1664844E+00
         21   -1    0    0  503  502  0.00000000000E+00  0.00000000000E+00  0.30983786093E+01  0.30983786093E+01  0.00000000000E+00 0. -1.
         21   -1    0    0  501  503 -0.00000000000E+00 -0.00000000000E+00 -0.19889860503E+03  0.19889860503E+03  0.00000000000E+00 0. -1.
          1    1    1    2  501    0  0.24439345831E+02  0.38101471379E+01 -0.89303838605E+02  0.92665929205E+02  0.00000000000E+00 0.  1.
         -1    1    1    2    0  502 -0.24439345831E+02 -0.38101471379E+01 -0.10649638781E+03  0.10933105443E+03  0.00000000000E+00 0. -1.
<mgrwt>
<rscale>  2 0.24734568E+02</rscale>
<asrwt>0</asrwt>
<pdfrwt beam="1">  1       21 0.47667374E-03 0.24734568E+02</pdfrwt>
<pdfrwt beam="2">  1       21 0.30599779E-01 0.24734568E+02</pdfrwt>
<totfact> 0.88544336E+07</totfact>
</mgrwt>
</event>
<event>
 4    1  0.7499963E+004  0.2070447E+02  0.7546771E-02  0.1731671E+00
         21   -1    0    0  503  502  0.00000000000E+00  0.00000000000E+00  0.13094380342E+03  0.13094380342E+03  0.00000000000E+00 0.  1.
         21   -1    0    0  501  503 -0.00000000000E+00 -0.00000000000E+00 -0.39021698216E+01  0.39021698216E+01  0.00000000000E+00 0.  1.
          3    1    1    2  501    0  0.45983020945E+01 -0.20187386887E+02  0.90578208167E+02  0.92914405591E+02  0.00000000000E+00 0.  1.
         -3    1    1    2    0  502 -0.45983020945E+01  0.20187386887E+02  0.36463425431E+02  0.41931567651E+02  0.00000000000E+00 0. -1.
<mgrwt>
<rscale>  2 0.20704467E+02</rscale>
<asrwt>0</asrwt>
<pdfrwt beam="1">  1       21 0.20145197E-01 0.20704467E+02</pdfrwt>
<pdfrwt beam="2">  1       21 0.60033392E-03 0.20704467E+02</pdfrwt>
<totfact> 0.12630643E+08</totfact>
</mgrwt>
</event>
<event>
 4    1  0.7499963E+004  0.2200549E+02  0.7546771E-02  0.1708157E+00
         21   -1    0    0  501  502  0.00000000000E+00  0.00000000000E+00  0.93565026822E+01  0.93565026822E+01  0.00000000000E+00 0.  1.
         21   -1    0    0  502  503 -0.00000000000E+00 -0.00000000000E+00 -0.57893128475E+02  0.57893128475E+02  0.00000000000E+00 0.  1.
          5    1    1    2  501    0 -0.97133603005E+01  0.19745683289E+02 -0.13319145439E+02  0.25722383484E+02  0.00000000000E+00 0. -1.
         -5    1    1    2    0  503  0.97133603005E+01 -0.19745683289E+02 -0.35217480354E+02  0.41527247674E+02  0.00000000000E+00 0.  1.
<mgrwt>
<rscale>  2 0.22005485E+02</rscale>
<asrwt>0</asrwt>
<pdfrwt beam="1">  1       21 0.14394620E-02 0.22005485E+02</pdfrwt>
<pdfrwt beam="2">  1       21 0.89066351E-02 0.22005485E+02</pdfrwt>
<totfact> 0.13755281E+08</totfact>
</mgrwt>
</event>
<event>
 4    1  0.7499963E+004  0.2048572E+02  0.7546771E-02  0.1735838E+00
         21   -1    0    0  501  502  0.00000000000E+00  0.00000000000E+00  0.43311151973E+02  0.43311151973E+02  0.00000000000E+00 0. -1.
         21   -1    0    0  502  503 -0.00000000000E+00 -0.00000000000E+00 -0.97749845860E+01  0.97749845860E+01  0.00000000000E+00 0. -1.
          1    1    1    2  501    0 -0.11741768981E+02 -0.16786767984E+02  0.19249845406E+02  0.28110874521E+02  0.00000000000E+00 0. -1.
         -1    1    1    2    0  503  0.11741768981E+02  0.16786767984E+02  0.14286321981E+02  0.24975262039E+02  0.00000000000E+00 0.  1.
<mgrwt>
<rscale>  2 0.20485720E+02</rscale>
<asrwt>0</asrwt>
<pdfrwt beam="1">  1       21 0.66632540E-02 0.20485720E+02</pdfrwt>
<pdfrwt beam="2">  1       21 0.15038438E-02 0.20485720E+02</pdfrwt>
<totfact> 0.20162837E+08</totfact>
</mgrwt>
</event>
<event>
 4    1  0.7499963E+004  0.2038433E+02  0.7546771E-02  0.1737791E+00
         21   -1    0    0  503  502  0.00000000000E+00  0.00000000000E+00  0.40788115518E+02  0.40788115518E+02  0.00000000000E+00 0.  1.
         21   -1    0    0  501  503 -0.00000000000E+00 -0.00000000000E+00 -0.11639115228E+02  0.11639115228E+02  0.00000000000E+00 0.  1.
          2    1    1    2  501    0  0.50128368784E+01 -0.19758351654E+02  0.53164018015E+01  0.21066208054E+02  0.00000000000E+00 0. -1.
         -2    1    1    2    0  502 -0.50128368784E+01  0.19758351654E+02  0.23832598489E+02  0.31361022693E+02  0.00000000000E+00 0.  1.
<mgrwt>
<rscale>  2 0.20384332E+02</rscale>
<asrwt>0</asrwt>
<pdfrwt beam="1">  1       21 0.62750946E-02 0.20384332E+02</pdfrwt>
<pdfrwt beam="2">  1       21 0.17906331E-02 0.20384332E+02</pdfrwt>
<totfact> 0.17008039E+08</totfact>
</mgrwt>
</event>
<event>
 4    1  0.7499963E+004  0.2520657E+02  0.7546771E-02  0.1658052E+00
         21   -1    0    0  501  502  0.00000000000E+00  0.00000000000E+00  0.22302419824E+02  0.22302419824E+02  0.00000000000E+00 0. -1.
         21   -1    0    0  502  503 -0.00000000000E+00 -0.00000000000E+00 -0.28654760424E+02  0.28654760424E+02  0.00000000000E+00 0. -1.
          3    1    1    2  501    0  0.74099771709E+01 -0.24092808516E+02 -0.51146513079E+01  0.25720241870E+02  0.00000000000E+00 0. -1.
         -3    1    1    2    0  503 -0.74099771709E+01  0.24092808516E+02 -0.12376892926E+01  0.25236938377E+02  0.00000000000E+00 0.  1.
<mgrwt>
<rscale>  2 0.25206570E+02</rscale>
<asrwt>0</asrwt>
<pdfrwt beam="1">  1       21 0.34311415E-02 0.25206570E+02</pdfrwt>
<pdfrwt beam="2">  1       21 0.44084247E-02 0.25206570E+02</pdfrwt>
<totfact> 0.11650848E+08</totfact>
</mgrwt>
</event>
<event>
 4    1  0.7499963E+004  0.4456484E+02  0.7546771E-02  0.1477077E+00
         21   -1    0    0  501  502  0.00000000000E+00  0.00000000000E+00  0.31828057956E+03  0.31828057956E+03  0.00000000000E+00 0. -1.
         21   -1    0    0  502  503 -0.00000000000E+00 -0.00000000000E+00 -0.10107716077E+02  0.10107716077E+02  0.00000000000E+00 0. -1.
          5    1    1    2  501    0  0.28920540404E+02  0.33906160698E+02  0.25565666798E+03  0.25951176712E+03  0.00000000000E+00 0.  1.
         -5    1    1    2    0  503 -0.28920540404E+02 -0.33906160698E+02  0.52516195497E+02  0.68876528513E+02  0.00000000000E+00 0. -1.
<mgrwt>
<rscale>  2 0.44564845E+02</rscale>
<asrwt>0</asrwt>
<pdfrwt beam="1">  1       21 0.48966235E-01 0.44564845E+02</pdfrwt>
<pdfrwt beam="2">  1       21 0.15550335E-02 0.44564845E+02</pdfrwt>
<totfact> 0.66834261E+06</totfact>
</mgrwt>
</event>
<event>
 4    1  0.7499963E+004  0.2599329E+02  0.7546771E-02  0.1647132E+00
         21   -1    0    0  501  502  0.00000000000E+00  0.00000000000E+00  0.14060156236E+03  0.14060156236E+03  0.00000000000E+00 0.  1.
         21   -1    0    0  502  503 -0.00000000000E+00 -0.00000000000E+00 -0.65106974830E+01  0.65106974830E+01  0.00000000000E+00 0.  1.
          1    1    1    2  501    0  0.24593882061E+02 -0.84138022949E+01  0.10468990731E+03  0.10786856724E+03  0.00000000000E+00 0.  1.
         -1    1    1    2    0  503 -0.24593882061E+02  0.84138022949E+01  0.29400957561E+02  0.39243692606E+02  0.00000000000E+00 0. -1.
<mgrwt>
<rscale>  2 0.25993290E+02</rscale>
<asrwt>0</asrwt>
<pdfrwt beam="1">  1       21 0.21631007E-01 0.25993290E+02</pdfrwt>
<pdfrwt beam="2">  1       21 0.10016459E-02 0.25993290E+02</pdfrwt>
<totfact> 0.55176989E+07</totfact>
</mgrwt>
</event>
<event>
 4    1  0.7499963E+004  0.2974720E+02  0.7546771E-02  0.1600900E+00
         21   -1    0    0  503  502  0.00000000000E+00  0.00000000000E+00  0.14299714541E+02  0.14299714541E+02  0.00000000000E+00 0. -1.
         21   -1    0    0  501  503 -0.00000000000E+00 -0.00000000000E+00 -0.62275702714E+02  0.62275702714E+02  0.00000000000E+00 0. -1.
          5    1    1    2  501    0 -0.55262427062E+01 -0.29229381224E+02 -0.20944027334E+02  0.36380604258E+02  0.00000000000E+00 0. -1.
         -5    1    1    2    0  502  0.55262427062E+01  0.29229381224E+02 -0.27031960839E+02  0.40194812998E+02  0.00000000000E+00 0.  1.
<mgrwt>
<rscale>  2 0.29747203E+02</rscale>
<asrwt>0</asrwt>
<pdfrwt beam="1">  1       21 0.21999561E-02 0.29747203E+02</pdfrwt>
<pdfrwt beam="2">  1       21 0.95808772E-02 0.29747203E+02</pdfrwt>
<totfact> 0.68934896E+07</totfact>
</mgrwt>
</event>
<event>
 4    1  0.7499963E+004  0.2084715E+02  0.7546771E-02  0.1728988E+00
         21   -1    0    0  503  502  0.00000000000E+00  0.00000000000E+00  0.17791053385E+01  0.17791053385E+01  0.00000000000E+00 0. -1.
         21   -1    0    0  501  503 -0.00000000000E+00 -0.00000000000E+00 -0.34764538736E+03  0.34764538736E+03  0.00000000000E+00 0. -1.
          2    1    1    2  501    0 -0.54838208300E+01 -0.20112967377E+02 -0.77667108168E+02  0.80416313263E+02  0.00000000000E+00 0. -1.
         -2    1    1    2    0  502  0.54838208300E+01  0.20112967377E+02 -0.26819917385E+03  0.26900817943E+03  0.00000000000E+00 0.  1.
<mgrwt>
<rscale>  2 0.20847152E+02</rscale>
<asrwt>0</asrwt>
<pdfrwt beam="1">  1       21 0.27370852E-03 0.20847152E+02</pdfrwt>
<pdfrwt beam="2">  1       21 0.53483904E-01 0.20847152E+02</pdfrwt>
<totfact> 0.66499463E+07</totfact>
</mgrwt>
</event>
<event>
 4    1  0.7499963E+004  0.2210073E+02  0.7546771E-02  0.1706516E+00
         21   -1    0    0  503  502  0.00000000000E+00  0.00000000000E+00  0.17664852907E+01  0.17664852907E+01  0.00000000000E+00 0. -1.
         21   -1    0    0  501  503 -0.00000000000E+00 -0.00000000000E+00 -0.27660526311E+03  0.27660526311E+03  0.00000000000E+00 0. -1.
          1    1    1    2  501    0 -0.20058142435E+02  0.92797144888E+01 -0.14006810116E+03  0.14180097017E+03  0.00000000000E+00 0.  1.
         -1    1    1    2    0  502  0.20058142435E+02 -0.92797144888E+01 -0.13477067666E+03  0.13657077823E+03  0.00000000000E+00 0. -1.
<mgrwt>
<rscale>  2 0.22100728E+02</rscale>
<asrwt>0</asrwt>
<pdfrwt beam="1">  1       21 0.27176706E-03 0.22100728E+02</pdfrwt>
<pdfrwt beam="2">  1       21 0.42554642E-01 0.22100728E+02</pdfrwt>
<totfact> 0.10593192E+08</totfact>
</mgrwt>
</event>
<event>
 4    1  0.7499963E+004  0.2902151E+02  0.7546771E-02  0.1609163E+00
         21   -1    0    0  503  502  0.00000000000E+00  0.00000000000E+00  0.47342279737E+02  0.47342279737E+02  0.00000000000E+00 0. -1.
         21   -1    0    0  501  503 -0.00000000000E+00 -0.00000000000E+00 -0.18579470633E+02  0.18579470633E+02  0.00000000000E+00 0. -1.
          1    1    1    2  501    0  0.42704559012E+01 -0.28705596303E+02  0.21173161055E+02  0.35924236969E+02  0.00000000000E+00 0.  1.
         -1    1    1    2    0  502 -0.42704559012E+01  0.28705596303E+02  0.75896480491E+01  0.29997513401E+02  0.00000000000E+00 0. -1.
<mgrwt>
<rscale>  2 0.29021510E+02</rscale>
<asrwt>0</asrwt>
<pdfrwt beam="1">  1       21 0.72834276E-02 0.29021510E+02</pdfrwt>
<pdfrwt beam="2">  1       21 0.28583801E-02 0.29021510E+02</pdfrwt>
<totfact> 0.71635813E+07</totfact>
</mgrwt>
</event>
<event>
 4    1  0.7499963E+004  0.2134462E+02  0.7546771E-02  0.1719839E+00
         21   -1    0    0  503  502  0.00000000000E+00  0.00000000000E+00  0.66977660952E+02  0.66977660952E+02  0.00000000000E+00 0. -1.
         21   -1    0    0  501  503 -0.00000000000E+00 -0.00000000000E+00 -0.68883984954E+01  0.68883984954E+01  0.00000000000E+00 0. -1.
          1    1    1    2  501    0 -0.20347337128E+02 -0.64481531353E+01  0.34177055030E+02  0.40294713023E+02  0.00000000000E+00 0.  1.
         -1    1    1    2    0  502  0.20347337128E+02  0.64481531353E+01  0.25912207426E+02  0.33571346425E+02  0.00000000000E+00 0. -1.
<mgrwt>
<rscale>  2 0.21344620E+02</rscale>
<asrwt>0</asrwt>
<pdfrwt beam="1">  1       21 0.10304255E-01 0.21344620E+02</pdfrwt>
<pdfrwt beam="2">  1       21 0.10597537E-02 0.21344620E+02</pdfrwt>
<totfact> 0.17013834E+08</totfact>
</mgrwt>
</event>
<event>
 4    1  0.7499963E+004  0.3559448E+02  0.7546771E-02  0.1543384E+00
         21   -1    0    0  501  502  0.00000000000E+00  0.00000000000E+00  0.25202680276E+01  0.25202680276E+01  0.00000000000E+00 0. -1.
         21   -1    0    0  502  503 -0.00000000000E+00 -0.00000000000E+00 -0.51069007315E+03  0.51069007315E+03  0.00000000000E+00 0. -1.
          4    1    1    2  501    0  0.29139142629E+02 -0.20442040587E+02 -0.28615946948E+03  0.28836471461E+03  0.00000000000E+00 0.  1.
         -4    1    1    2    0  503 -0.29139142629E+02  0.20442040587E+02 -0.22201033564E+03  0.22484562657E+03  0.00000000000E+00 0. -1.
<mgrwt>
<rscale>  2 0.35594475E+02</rscale>
<asrwt>0</asrwt>
<pdfrwt beam="1">  1       21 0.38773341E-03 0.35594475E+02</pdfrwt>
<pdfrwt beam="2">  1       21 0.78567730E-01 0.35594475E+02</pdfrwt>
<totfact> 0.20253925E+07</totfact>
</mgrwt>
</event>
<event>
 4    1  0.7499963E+004  0.2465124E+02  0.7546771E-02  0.1666062E+00
         21   -1    0    0  501  502  0.00000000000E+00  0.00000000000E+00  0.20811683509E+02  0.20811683509E+02  0.00000000000E+00 0. -1.
         21   -1    0    0  502  503 -0.00000000000E+00 -0.00000000000E+00 -0.29309723554E+02  0.29309723554E+02  0.00000000000E+00 0. -1.
          2    1    1    2  501    0  0.30753634390E+01  0.24458652467E+02 -0.27097804775E+01  0.24799726834E+02  0.00000000000E+00 0.  1.
         -2    1    1    2    0  503 -0.30753634390E+01 -0.24458652467E+02 -0.57882595668E+01  0.25321680229E+02  0.00000000000E+00 0. -1.
<mgrwt>
<rscale>  2 0.24651238E+02</rscale>
<asrwt>0</asrwt>
<pdfrwt beam="1">  1       21 0.32017975E-02 0.24651238E+02</pdfrwt>
<pdfrwt beam="2">  1       21 0.45091882E-02 0.24651238E+02</pdfrwt>
<totfact> 0.12452058E+08</totfact>
</mgrwt>
</event>
<event>
 4    1  0.7499963E+004  0.3154704E+02  0.7546771E-02  0.1581592E+00
         21   -1    0    0  503  502  0.00000000000E+00  0.00000000000E+00  0.21801749594E+03  0.21801749594E+03  0.00000000000E+00 0. -1.
         21   -1    0    0  501  503 -0.00000000000E+00 -0.00000000000E+00 -0.64795205335E+01  0.64795205335E+01  0.00000000000E+00 0. -1.
          4    1    1    2  501    0 -0.24042333937E+02 -0.20425028765E+02  0.16678684787E+03  0.16974412580E+03  0.00000000000E+00 0. -1.
         -4    1    1    2    0  502  0.24042333937E+02  0.20425028765E+02  0.44751127530E+02  0.54752890667E+02  0.00000000000E+00 0.  1.
<mgrwt>
<rscale>  2 0.31547038E+02</rscale>
<asrwt>0</asrwt>
<pdfrwt beam="1">  1       21 0.33541148E-01 0.31547038E+02</pdfrwt>
<pdfrwt beam="2">  1       21 0.99684948E-03 0.31547038E+02</pdfrwt>
<totfact> 0.26104596E+07</totfact>
</mgrwt>
</event>
<event>
 4    1  0.7499963E+004  0.2413520E+02  0.7546771E-02  0.1673743E+00
         21   -1    0    0  503  502  0.00000000000E+00  0.00000000000E+00  0.43043580123E+03  0.43043580123E+03  0.00000000000E+00 0.  1.
         21   -1    0    0  501  503 -0.00000000000E+00 -0.00000000000E+00 -0.13533078191E+01  0.13533078191E+01  0.00000000000E+00 0.  1.
          3    1    1    2  501    0 -0.23725023040E+02  0.44306916193E+01  0.21394863787E+03  0.21530566038E+03  0.00000000000E+00 0.  1.
         -3    1    1    2    0  502  0.23725023040E+02 -0.44306916193E+01  0.21513385555E+03  0.21648344867E+03  0.00000000000E+00 0. -1.
<mgrwt>
<rscale>  2 0.24135197E+02</rscale>
<asrwt>0</asrwt>
<pdfrwt beam="1">  1       21 0.66220783E-01 0.24135197E+02</pdfrwt>
<pdfrwt beam="2">  1       21 0.20820155E-03 0.24135197E+02</pdfrwt>
<totfact> 0.66893922E+07</totfact>
</mgrwt>
</event>
<event>
 4    1  0.7499963E+004  0.2302791E+02  0.7546771E-02  0.1691058E+00
         21   -1    0    0  503  502  0.00000000000E+00  0.00000000000E+00  0.57958497063E+02  0.57958497063E+02  0.00000000000E+00 0.  1.
         21   -1    0    0  501  503 -0.00000000000E+00 -0.00000000000E+00 -0.14846221482E+02  0.14846221482E+02  0.00000000000E+00 0.  1.
          5    1    1    2  501    0  0.70685823577E+01  0.21916202738E+02  0.44105710271E+02  0.49755386417E+02  0.00000000000E+00 0.  1.
         -5    1    1    2    0  502 -0.70685823577E+01 -0.21916202738E+02 -0.99343469001E+00  0.23049332127E+02  0.00000000000E+00 0. -1.
<mgrwt>
<rscale>  2 0.23027913E+02</rscale>
<asrwt>0</asrwt>
<pdfrwt beam="1">  1       21 0.89166917E-02 0.23027913E+02</pdfrwt>
<pdfrwt beam="2">  1       21 0.22840341E-02 0.23027913E+02</pdfrwt>
<totfact> 0.68688481E+07</totfact>
</mgrwt>
</event>
<event>
 4    1  0.7499963E+004  0.3036581E+02  0.7546771E-02  0.1594080E+00
         21   -1    0    0  501  502  0.00000000000E+00  0.00000000000E+00  0.32923702850E+01  0.32923702850E+01  0.00000000000E+00 0. -1.
         21   -1    0    0  502  503 -0.00000000000E+00 -0.00000000000E+00 -0.40136303886E+03  0.40136303886E+03  0.00000000000E+00 0. -1.
          4    1    1    2  501    0 -0.61228094071E+01 -0.29742123106E+02 -0.87808176859E+02  0.92910487057E+02  0.00000000000E+00 0.  1.
         -4    1    1    2    0  503  0.61228094071E+01  0.29742123106E+02 -0.31026249172E+03  0.31174492209E+03  0.00000000000E+00 0. -1.
<mgrwt>
<rscale>  2 0.30365814E+02</rscale>
<asrwt>0</asrwt>
<pdfrwt beam="1">  1       21 0.50651884E-03 0.30365814E+02</pdfrwt>
<pdfrwt beam="2">  1       21 0.61748120E-01 0.30365814E+02</pdfrwt>
<totfact> 0.21900931E+07</totfact>
</mgrwt>
</event>
<event>
 4    1  0.7499963E+004  0.3072840E+02  0.7546771E-02  0.1590174E+00
         21   -1    0    0  501  502  0.00000000000E+00  0.00000000000E+00  0.93466905934E+01  0.93466905934E+01  0.00000000000E+00 0. -1.
         21   -1    0    0  502  503 -0.00000000000E+00 -0.00000000000E+00 -0.10745156055E+03  0.10745156055E+03  0.00000000000E+00 0. -1.
          3    1    1    2  501    0 -0.27652634054E+01  0.30603723045E+02 -0.63336211170E+02  0.70396805263E+02  0.00000000000E+00 0. -1.
         -3    1    1    2    0  503  0.27652634054E+01 -0.30603723045E+02 -0.34768658786E+02  0.46401445879E+02  0.00000000000E+00 0.  1.
<mgrwt>
<rscale>  2 0.30728400E+02</rscale>
<asrwt>0</asrwt>
<pdfrwt beam="1">  1       21 0.14379523E-02 0.30728400E+02</pdfrwt>
<pdfrwt beam="2">  1       21 0.16531011E-01 0.30728400E+02</pdfrwt>
<totfact> 0.52952342E+07</totfact>
</mgrwt>
</event>
<event>
 4    1  0.7499963E+004  0.2675369E+02  0.7546771E-02  0.1637020E+00
         21   -1    0    0  501  502  0.00000000000E+00  0.00000000000E+00  0.16920910175E+01  0.16920910175E+01  0.00000000000E+00 0. -1.
         21   -1    0    0  502  503 -0.00000000000E+00 -0.00000000000E+00 -0.44837636124E+03  0.44837636124E+03  0.00000000000E+00 0. -1.
          2    1    1    2  501    0 -0.22596377845E+02  0.14323537445E+02 -0.16981006992E+03  0.17190468249E+03  0.00000000000E+00 0. -1.
         -2    1    1    2    0  503  0.22596377845E+02 -0.14323537445E+02 -0.27687420030E+03  0.27816376976E+03  0.00000000000E+00 0.  1.
<mgrwt>
<rscale>  2 0.26753692E+02</rscale>
<asrwt>0</asrwt>
<pdfrwt beam="1">  1       21 0.26032214E-03 0.26753692E+02</pdfrwt>
<pdfrwt beam="2">  1       21 0.68980861E-01 0.26753692E+02</pdfrwt>
<totfact> 0.45475813E+07</totfact>
</mgrwt>
</event>
<event>
 4    1  0.7499963E+004  0.2602913E+02  0.7546771E-02  0.1646645E+00
         21   -1    0    0  501  502  0.00000000000E+00  0.00000000000E+00  0.71227756568E+01  0.71227756568E+01  0.00000000000E+00 0. -1.
         21   -1    0    0  502  503 -0.00000000000E+00 -0.00000000000E+00 -0.15892066167E+03  0.15892066167E+03  0.00000000000E+00 0. -1.
          2    1    1    2  501    0  0.25998106504E+02  0.12704968704E+01 -0.12850253816E+03  0.13111223443E+03  0.00000000000E+00 0.  1.
         -2    1    1    2    0  503 -0.25998106504E+02 -0.12704968704E+01 -0.23295347852E+02  0.34931202894E+02  0.00000000000E+00 0. -1.
<mgrwt>
<rscale>  2 0.26029132E+02</rscale>
<asrwt>0</asrwt>
<pdfrwt beam="1">  1       21 0.10958116E-02 0.26029132E+02</pdfrwt>
<pdfrwt beam="2">  1       21 0.24449333E-01 0.26029132E+02</pdfrwt>
<totfact> 0.38762897E+07</totfact>
</mgrwt>
</event>
<event>
 4    1  0.7499963E+004  0.2271278E+02  0.7546771E-02  0.1696209E+00
         21   -1    0    0  503  502  0.00000000000E+00  0.00000000000E+00  0.37354065514E+01  0.37354065514E+01  0.00000000000E+00 0.  1.
         21   -1    0    0  501  503 -0.00000000000E+00 -0.00000000000E+00 -0.15538192075E+03  0.15538192075E+03  0.00000000000E+00 0.  1.
          5    1    1    2  501    0 -0.18757450645E+02  0.12807356202E+02 -0.10235387127E+03  0.10484362304E+03  0.00000000000E+00 0.  1.
         -5    1    1    2    0  502  0.18757450645E+02 -0.12807356202E+02 -0.49292642922E+02  0.54273704258E+02  0.00000000000E+00 0. -1.
<mgrwt>
<rscale>  2 0.22712779E+02</rscale>
<asrwt>0</asrwt>
<pdfrwt beam="1">  1       21 0.57467805E-03 0.22712779E+02</pdfrwt>
<pdfrwt beam="2">  1       21 0.23904906E-01 0.22712779E+02</pdfrwt>
<totfact> 0.10242096E+08</totfact>
</mgrwt>
</event>
<event>
 4    1  0.7499963E+004  0.3017035E+02  0.7546771E-02  0.1596213E+00
         21   -1    0    0  501  502  0.00000000000E+00  0.00000000000E+00  0.11374471851E+03  0.11374471851E+03  0.00000000000E+00 0. -1.
         21   -1    0    0  502  503 -0.00000000000E+00 -0.00000000000E+00 -0.81717305497E+01  0.81717305497E+01  0.00000000000E+00 0. -1.
          4    1    1    2  501    0  0.19914425462E+02 -0.22664187730E+02  0.44015910177E+02  0.53363377851E+02  0.00000000000E+00 0.  1.
         -4    1    1    2    0  503 -0.19914425462E+02  0.22664187730E+02  0.61557077781E+02  0.68553071207E+02  0.00000000000E+00 0. -1.
<mgrwt>
<rscale>  2 0.30170345E+02</rscale>
<asrwt>0</asrwt>
<pdfrwt beam="1">  1       21 0.17499186E-01 0.30170345E+02</pdfrwt>
<pdfrwt beam="2">  1       21 0.12571894E-02 0.30170345E+02</pdfrwt>
<totfact> 0.58670855E+07</totfact>
</mgrwt>
</event>
<event>
 4    1  0.7499963E+004  0.3104708E+02  0.7546771E-02  0.1586795E+00
         21   -1    0    0  501  502  0.00000000000E+00  0.00000000000E+00  0.14985657559E+03  0.14985657559E+03  0.00000000000E+00 0.  1.
         21   -1    0    0  502  503 -0.00000000000E+00 -0.00000000000E+00 -0.66283739437E+01  0.66283739437E+01  0.00000000000E+00 0.  1.
          3    1    1    2  501    0 -0.29776160725E+02  0.87921125225E+01  0.58156742484E+02  0.65925167323E+02  0.00000000000E+00 0.  1.
         -3    1    1    2    0  503  0.29776160725E+02 -0.87921125225E+01  0.85071459160E+02  0.90559782209E+02  0.00000000000E+00 0. -1.
<mgrwt>
<rscale>  2 0.31047077E+02</rscale>
<asrwt>0</asrwt>
<pdfrwt beam="1">  1       21 0.23054855E-01 0.31047077E+02</pdfrwt>
<pdfrwt beam="2">  1       21 0.10197500E-02 0.31047077E+02</pdfrwt>
<totfact> 0.49877061E+07</totfact>
</mgrwt>
</event>
<event>
 4    1  0.7499963E+004  0.3855826E+02  0.7546771E-02  0.1519097E+00
         21   -1    0    0  501  502  0.00000000000E+00  0.00000000000E+00  0.21810121009E+02  0.21810121009E+02  0.00000000000E+00 0.  1.
         21   -1    0    0  502  503 -0.00000000000E+00 -0.00000000000E+00 -0.77162824254E+02  0.77162824254E+02  0.00000000000E+00 0.  1.
          5    1    1    2  501    0 -0.31931271959E+02  0.21613268952E+02 -0.10779999339E+02  0.40036831911E+02  0.00000000000E+00 0.  1.
         -5    1    1    2    0  503  0.31931271959E+02 -0.21613268952E+02 -0.44572703906E+02  0.58936113353E+02  0.00000000000E+00 0. -1.
<mgrwt>
<rscale>  2 0.38558261E+02</rscale>
<asrwt>0</asrwt>
<pdfrwt beam="1">  1       21 0.33554032E-02 0.38558261E+02</pdfrwt>
<pdfrwt beam="2">  1       21 0.11871204E-01 0.38558261E+02</pdfrwt>
<totfact> 0.26041165E+07</totfact>
</mgrwt>
</event>
<event>
 4    1  0.7499963E+004  0.2418987E+02  0.7546771E-02  0.1672918E+00
         21   -1    0    0  503  502  0.00000000000E+00  0.00000000000E+00  0.41253922481E+01  0.41253922481E+01  0.00000000000E+00 0. -1.
         21   -1    0    0  501  503 -0.00000000000E+00 -0.00000000000E+00 -0.15131875652E+03  0.15131875652E+03  0.00000000000E+00 0. -1.
          1    1    1    2  501    0  0.17842666063E+02  0.16333673010E+02 -0.93048116839E+02  0.96141050824E+02  0.00000000000E+00 0.  1.
         -1    1    1    2    0  502 -0.17842666063E+02 -0.16333673010E+02 -0.54145247436E+02  0.59303097948E+02  0.00000000000E+00 0. -1.
<mgrwt>
<rscale>  2 0.24189866E+02</rscale>
<asrwt>0</asrwt>
<pdfrwt beam="1">  1       21 0.63467570E-03 0.24189866E+02</pdfrwt>
<pdfrwt beam="2">  1       21 0.23279810E-01 0.24189866E+02</pdfrwt>
<totfact> 0.94251984E+07</totfact>
</mgrwt>
</event>
<event>
 4    1  0.7499963E+004  0.2293972E+02  0.7546771E-02  0.1692489E+00
         21   -1    0    0  503  502  0.00000000000E+00  0.00000000000E+00  0.56691954313E+01  0.56691954313E+01  0.00000000000E+00 0. -1.
         21   -1    0    0  501  503 -0.00000000000E+00 -0.00000000000E+00 -0.93614440944E+02  0.93614440944E+02  0.00000000000E+00 0. -1.
          4    1    1    2  501    0  0.22937572046E+02 -0.31371947929E+00 -0.39407646093E+02  0.45598171037E+02  0.00000000000E+00 0.  1.
         -4    1    1    2    0  502 -0.22937572046E+02  0.31371947929E+00 -0.48537599419E+02  0.53685465339E+02  0.00000000000E+00 0. -1.
<mgrwt>
<rscale>  2 0.22939717E+02</rscale>
<asrwt>0</asrwt>
<pdfrwt beam="1">  1       21 0.87218398E-03 0.22939717E+02</pdfrwt>
<pdfrwt beam="2">  1       21 0.14402221E-01 0.22939717E+02</pdfrwt>
<totfact> 0.13290447E+08</totfact>
</mgrwt>
</event>
<event>
 4    1  0.7499963E+004  0.3636318E+02  0.7546771E-02  0.1536818E+00
         21   -1    0    0  501  502  0.00000000000E+00  0.00000000000E+00  0.23363377038E+01  0.23363377038E+01  0.00000000000E+00 0.  1.
         21   -1    0    0  502  503 -0.00000000000E+00 -0.00000000000E+00 -0.56630979690E+03  0.56630979690E+03  0.00000000000E+00 0.  1.
          3    1    1    2  501    0 -0.26307325367E+02  0.25103894079E+02 -0.27495151922E+03  0.27734566661E+03  0.00000000000E+00 0.  1.
         -3    1    1    2    0  503  0.26307325367E+02 -0.25103894079E+02 -0.28902193998E+03  0.29130046799E+03  0.00000000000E+00 0. -1.
<mgrwt>
<rscale>  2 0.36363180E+02</rscale>
<asrwt>0</asrwt>
<pdfrwt beam="1">  1       21 0.35943681E-03 0.36363180E+02</pdfrwt>
<pdfrwt beam="2">  1       21 0.87124526E-01 0.36363180E+02</pdfrwt>
<totfact> 0.18203361E+07</totfact>
</mgrwt>
</event>
<event>
 4    1  0.7499963E+004  0.3536296E+02  0.7546771E-02  0.1545401E+00
         21   -1    0    0  503  502  0.00000000000E+00  0.00000000000E+00  0.40738708264E+02  0.40738708264E+02  0.00000000000E+00 0.  1.
         21   -1    0    0  501  503 -0.00000000000E+00 -0.00000000000E+00 -0.34743904245E+02  0.34743904245E+02  0.00000000000E+00 0.  1.
          5    1    1    2  501    0 -0.27129302369E+02  0.22683469025E+02 -0.98839629388E+01  0.36718272528E+02  0.00000000000E+00 0.  1.
         -5    1    1    2    0  502  0.27129302369E+02 -0.22683469025E+02  0.15878766958E+02  0.38764339981E+02  0.00000000000E+00 0. -1.
<mgrwt>
<rscale>  2 0.35362958E+02</rscale>
<asrwt>0</asrwt>
<pdfrwt beam="1">  1       21 0.62674936E-02 0.35362958E+02</pdfrwt>
<pdfrwt beam="2">  1       21 0.53452160E-02 0.35362958E+02</pdfrwt>
<totfact> 0.35242451E+07</totfact>
</mgrwt>
</event>
<event>
 4    1  0.7499963E+004  0.2256674E+02  0.7546771E-02  0.1698631E+00
         21   -1    0    0  501  502  0.00000000000E+00  0.00000000000E+00  0.99917619884E+01  0.99917619884E+01  0.00000000000E+00 0. -1.
         21   -1    0    0  502  503 -0.00000000000E+00 -0.00000000000E+00 -0.51014468282E+02  0.51014468282E+02  0.00000000000E+00 0. -1.
          1    1    1    2  501    0  0.10710338309E+02  0.19863196294E+02 -0.19588553167E+02  0.29882592406E+02  0.00000000000E+00 0.  1.
         -1    1    1    2    0  503 -0.10710338309E+02 -0.19863196294E+02 -0.21434153127E+02  0.31123637865E+02  0.00000000000E+00 0. -1.
<mgrwt>
<rscale>  2 0.22566744E+02</rscale>
<asrwt>0</asrwt>
<pdfrwt beam="1">  1       21 0.15371941E-02 0.22566744E+02</pdfrwt>
<pdfrwt beam="2">  1       21 0.78483799E-02 0.22566744E+02</pdfrwt>
<totfact> 0.15424561E+08</totfact>
</mgrwt>
</event>
<event>
 4    1  0.7499963E+004  0.2663544E+02  0.7546771E-02  0.1638565E+00
         21   -1    0    0  503  502  0.00000000000E+00  0.00000000000E+00  0.34010966618E+03  0.34010966618E+03  0.00000000000E+00 0. -1.
         21   -1    0    0  501  503 -0.00000000000E+00 -0.00000000000E+00 -0.22648968916E+01  0.22648968916E+01  0.00000000000E+00 0. -1.
          5    1    1    2  501    0 -0.18118468594E+02 -0.19523522925E+02  0.12080224683E+03  0.12370379821E+03  0.00000000000E+00 0.  1.
         -5    1    1    2    0  502  0.18118468594E+02  0.19523522925E+02  0.21704252246E+03  0.21867076486E+03  0.00000000000E+00 0. -1.
<mgrwt>
<rscale>  2 0.26635444E+02</rscale>
<asrwt>0</asrwt>
<pdfrwt beam="1">  1       21 0.52324524E-01 0.26635444E+02</pdfrwt>
<pdfrwt beam="2">  1       21 0.34844595E-03 0.26635444E+02</pdfrwt>
<totfact> 0.51704726E+07</totfact>
</mgrwt>
</event>
<event>
 4    1  0.7499963E+004  0.2896236E+02  0.7546771E-02  0.1609850E+00
         21   -1    0    0  503  502  0.00000000000E+00  0.00000000000E+00  0.73985431833E+02  0.73985431833E+02  0.00000000000E+00 0.  1.
         21   -1    0    0  501  503 -0.00000000000E+00 -0.00000000000E+00 -0.12946944453E+02  0.12946944453E+02  0.00000000000E+00 0.  1.
          5    1    1    2  501    0 -0.29430537683E+01 -0.28812442173E+02  0.45843884568E+02  0.54226194240E+02  0.00000000000E+00 0. -1.
         -5    1    1    2    0  502  0.29430537683E+01  0.28812442173E+02  0.15194602812E+02  0.32706182046E+02  0.00000000000E+00 0.  1.
<mgrwt>
<rscale>  2 0.28962362E+02</rscale>
<asrwt>0</asrwt>
<pdfrwt beam="1">  1       21 0.11382374E-01 0.28962362E+02</pdfrwt>
<pdfrwt beam="2">  1       21 0.19918377E-02 0.28962362E+02</pdfrwt>
<totfact> 0.59879722E+07</totfact>
</mgrwt>
</event>
<event>
 4    1  0.7499963E+004  0.2087803E+02  0.7546771E-02  0.1728411E+00
         21   -1    0    0  501  502  0.00000000000E+00  0.00000000000E+00  0.52192770129E+01  0.52192770129E+01  0.00000000000E+00 0. -1.
         21   -1    0    0  502  503 -0.00000000000E+00 -0.00000000000E+00 -0.94546875385E+02  0.94546875385E+02  0.00000000000E+00 0. -1.
          1    1    1    2  501    0 -0.72194026153E+01 -0.19590108949E+02 -0.61702574820E+02  0.65139081067E+02  0.00000000000E+00 0.  1.
         -1    1    1    2    0  503  0.72194026153E+01  0.19590108949E+02 -0.27625023551E+02  0.34627071331E+02  0.00000000000E+00 0. -1.
<mgrwt>
<rscale>  2 0.20878030E+02</rscale>
<asrwt>0</asrwt>
<pdfrwt beam="1">  1       21 0.80296573E-03 0.20878030E+02</pdfrwt>
<pdfrwt beam="2">  1       21 0.14545672E-01 0.20878030E+02</pdfrwt>
<totfact> 0.14378904E+08</totfact>
</mgrwt>
</event>
<event>
 4    1  0.7499963E+004  0.2680625E+02  0.7546771E-02  0.1636336E+00
         21   -1    0    0  503  502  0.00000000000E+00  0.00000000000E+00  0.35786735580E+02  0.35786735580E+02  0.00000000000E+00 0. -1.
         21   -1    0    0  501  503 -0.00000000000E+00 -0.00000000000E+00 -0.34757144562E+02  0.34757144562E+02  0.00000000000E+00 0. -1.
          5    1    1    2  501    0  0.84182751077E+01 -0.25450099938E+02  0.23436002145E+02  0.35606476085E+02  0.00000000000E+00 0. -1.
         -5    1    1    2    0  502 -0.84182751077E+01  0.25450099938E+02 -0.22406411127E+02  0.34937404057E+02  0.00000000000E+00 0.  1.
<mgrwt>
<rscale>  2 0.26806248E+02</rscale>
<asrwt>0</asrwt>
<pdfrwt beam="1">  1       21 0.55056517E-02 0.26806248E+02</pdfrwt>
<pdfrwt beam="2">  1       21 0.53472530E-02 0.26806248E+02</pdfrwt>
<totfact> 0.40990767E+07</totfact>
</mgrwt>
</event>
<event>
 4    1  0.7499963E+004  0.2116753E+02  0.7546771E-02  0.1723060E+00
         21   -1    0    0  501  502  0.00000000000E+00  0.00000000000E+00  0.13022865448E+02  0.13022865448E+02  0.00000000000E+00 0.  1.
         21   -1    0    0  502  503 -0.00000000000E+00 -0.00000000000E+00 -0.35575399441E+02  0.35575399441E+02  0.00000000000E+00 0.  1.
          2    1    1    2  501    0 -0.13245485955E+02 -0.16511246219E+02 -0.68706647700E+01  0.22254666573E+02  0.00000000000E+00 0. -1.
         -2    1    1    2    0  503  0.13245485955E+02  0.16511246219E+02 -0.15681869223E+02  0.26343598316E+02  0.00000000000E+00 0.  1.
<mgrwt>
<rscale>  2 0.21167526E+02</rscale>
<asrwt>0</asrwt>
<pdfrwt beam="1">  1       21 0.20035178E-02 0.21167526E+02</pdfrwt>
<pdfrwt beam="2">  1       21 0.54731383E-02 0.21167526E+02</pdfrwt>
<totfact> 0.18041456E+08</totfact>
</mgrwt>
</event>
<event>
 4    1  0.7499963E+004  0.2143107E+02  0.7546771E-02  0.1718281E+00
         21   -1    0    0  503  502  0.00000000000E+00  0.00000000000E+00  0.93920432642E+02  0.93920432642E+02  0.00000000000E+00 0. -1.
         21   -1    0    0  501  503 -0.00000000000E+00 -0.00000000000E+00 -0.51779460940E+01  0.51779460940E+01  0.00000000000E+00 0. -1.
          1    1    1    2  501    0  0.17796376074E+01 -0.21357054189E+02  0.56051518518E+02  0.60008862694E+02  0.00000000000E+00 0.  1.
         -1    1    1    2    0  502 -0.17796376074E+01  0.21357054189E+02  0.32690968030E+02  0.39089516042E+02  0.00000000000E+00 0. -1.
<mgrwt>
<rscale>  2 0.21431073E+02</rscale>
<asrwt>0</asrwt>
<pdfrwt beam="1">  1       21 0.14449296E-01 0.21431073E+02</pdfrwt>
<pdfrwt beam="2">  1       21 0.79660716E-03 0.21431073E+02</pdfrwt>
<totfact> 0.14830565E+08</totfact>
</mgrwt>
</event>
<event>
 4    1  0.7499963E+004  0.2628684E+02  0.7546771E-02  0.1643178E+00
         21   -1    0    0  503  502  0.00000000000E+00  0.00000000000E+00  0.80402833692E+01  0.80402833692E+01  0.00000000000E+00 0.  1.
         21   -1    0    0  501  503 -0.00000000000E+00 -0.00000000000E+00 -0.95570234246E+02  0.95570234246E+02  0.00000000000E+00 0.  1.
          3    1    1    2  501    0  0.26040883288E+02 -0.35874964480E+01 -0.60208188654E+02  0.65696451306E+02  0.00000000000E+00 0.  1.
         -3    1    1    2    0  502 -0.26040883288E+02  0.35874964480E+01 -0.27321762222E+02  0.37914066309E+02  0.00000000000E+00 0. -1.
<mgrwt>
<rscale>  2 0.26286836E+02</rscale>
<asrwt>0</asrwt>
<pdfrwt beam="1">  1       21 0.12369668E-02 0.26286836E+02</pdfrwt>
<pdfrwt beam="2">  1       21 0.14703112E-01 0.26286836E+02</pdfrwt>
<totfact> 0.78608259E+07</totfact>
</mgrwt>
</event>
<event>
 4    1  0.7499963E+004  0.2997926E+02  0.7546771E-02  0.1598318E+00
         21   -1    0    0  501  502  0.00000000000E+00  0.00000000000E+00  0.22180692407E+03  0.22180692407E+03  0.00000000000E+00 0.  1.
         21   -1    0    0  502  503 -0.00000000000E+00 -0.00000000000E+00 -0.41814623155E+01  0.41814623155E+01  0.00000000000E+00 0.  1.
          4    1    1    2  501    0 -0.25208411164E+02  0.16226277298E+02  0.12869683227E+03  0.13214246367E+03  0.00000000000E+00 0.  1.
         -4    1    1    2    0  503  0.25208411164E+02 -0.16226277298E+02  0.88928629483E+02  0.93845922714E+02  0.00000000000E+00 0. -1.
<mgrwt>
<rscale>  2 0.29979261E+02</rscale>
<asrwt>0</asrwt>
<pdfrwt beam="1">  1       21 0.34124133E-01 0.29979261E+02</pdfrwt>
<pdfrwt beam="2">  1       21 0.64330207E-03 0.29979261E+02</pdfrwt>
<totfact> 0.48443110E+07</totfact>
</mgrwt>
</event>
<event>
 4    1  0.7499963E+004  0.3330448E+02  0.7546771E-02  0.1564194E+00
         21   -1    0    0  501  502  0.00000000000E+00  0.00000000000E+00  0.95732391863E+03  0.95732391863E+03  0.00000000000E+00 0.  1.
         21   -1    0    0  502  503 -0.00000000000E+00 -0.00000000000E+00 -0.13253978005E+01  0.13253978005E+01  0.00000000000E+00 0.  1.
          4    1    1    2  501    0  0.13137601614E+02 -0.30603788683E+02  0.30797653496E+03  0.30977206869E+03  0.00000000000E+00 0. -1.
         -4    1    1    2    0  503 -0.13137601614E+02  0.30603788683E+02  0.64802198587E+03  0.64887724773E+03  0.00000000000E+00 0.  1.
<mgrwt>
<rscale>  2 0.33304481E+02</rscale>
<asrwt>0</asrwt>
<pdfrwt beam="1">  1       21 0.14728005E+00 0.33304481E+02</pdfrwt>
<pdfrwt beam="2">  1       21 0.20390812E-03 0.33304481E+02</pdfrwt>
<totfact> 0.12481890E+07</totfact>
</mgrwt>
</event>
<event>
 4    1  0.7499963E+004  0.2323587E+02  0.7546771E-02  0.1687715E+00
         21   -1    0    0  501  502  0.00000000000E+00  0.00000000000E+00  0.18975170070E+01  0.18975170070E+01  0.00000000000E+00 0. -1.
         21   -1    0    0  502  503 -0.00000000000E+00 -0.00000000000E+00 -0.32183971716E+03  0.32183971716E+03  0.00000000000E+00 0. -1.
          4    1    1    2  501    0 -0.69068114452E+01 -0.22185620587E+02 -0.10486018961E+03  0.10740374840E+03  0.00000000000E+00 0.  1.
         -4    1    1    2    0  503  0.69068114452E+01  0.22185620587E+02 -0.21508201054E+03  0.21633348576E+03  0.00000000000E+00 0. -1.
<mgrwt>
<rscale>  2 0.23235873E+02</rscale>
<asrwt>0</asrwt>
<pdfrwt beam="1">  1       21 0.29192573E-03 0.23235873E+02</pdfrwt>
<pdfrwt beam="2">  1       21 0.49513796E-01 0.23235873E+02</pdfrwt>
<totfact> 0.72312853E+07</totfact>
</mgrwt>
</event>
<event>
 4    1  0.7499963E+004  0.2314172E+02  0.7546771E-02  0.1689223E+00
         21   -1    0    0  501  502  0.00000000000E+00  0.00000000000E+00  0.45834478923E+02  0.45834478923E+02  0.00000000000E+00 0. -1.
         21   -1    0    0  502  503 -0.00000000000E+00 -0.00000000000E+00 -0.13217581973E+02  0.13217581973E+02  0.00000000000E+00 0. -1.
          4    1    1    2  501    0  0.10469477650E+02  0.20638055472E+02  0.26365113737E+02  0.35080742841E+02  0.00000000000E+00 0.  1.
         -4    1    1    2    0  503 -0.10469477650E+02 -0.20638055472E+02  0.62517832130E+01  0.23971318054E+02  0.00000000000E+00 0. -1.
<mgrwt>
<rscale>  2 0.23141722E+02</rscale>
<asrwt>0</asrwt>
<pdfrwt beam="1">  1       21 0.70514582E-02 0.23141722E+02</pdfrwt>
<pdfrwt beam="2">  1       21 0.20334742E-02 0.23141722E+02</pdfrwt>
<totfact> 0.12061172E+08</totfact>
</mgrwt>
</event>
<event>
 4    1  0.7499963E+004  0.2364281E+02  0.7546771E-02  0.1681297E+00
         21   -1    0    0  503  502  0.00000000000E+00  0.00000000000E+00  0.26901728141E+03  0.26901728141E+03  0.00000000000E+00 0.  1.
         21   -1    0    0  501  503 -0.00000000000E+00 -0.00000000000E+00 -0.21966183041E+01  0.21966183041E+01  0.00000000000E+00 0.  1.
          2    1    1    2  501    0 -0.31104289097E+01  0.23437313235E+02  0.10188048309E+03  0.10458783511E+03  0.00000000000E+00 0. -1.
         -2    1    1    2    0  502  0.31104289097E+01 -0.23437313235E+02  0.16494018002E+03  0.16662606460E+03  0.00000000000E+00 0.  1.
<mgrwt>
<rscale>  2 0.23642809E+02</rscale>
<asrwt>0</asrwt>
<pdfrwt beam="1">  1       21 0.41387248E-01 0.23642809E+02</pdfrwt>
<pdfrwt beam="2">  1       21 0.33794149E-03 0.23642809E+02</pdfrwt>
<totfact> 0.82731774E+07</totfact>
</mgrwt>
</event>
<event>
 4    1  0.7499963E+004  0.2173635E+02  0.7546771E-02  0.1712852E+00
         21   -1    0    0  503  502  0.00000000000E+00  0.00000000000E+00  0.59406952762E+02  0.59406952762E+02  0.00000000000E+00 0. -1.
         21   -1    0    0  501  503 -0.00000000000E+00 -0.00000000000E+00 -0.83736931079E+01  0.83736931079E+01  0.00000000000E+00 0. -1.
          2    1    1    2  501    0 -0.12121360719E+02  0.18042768591E+02  0.17921187690E+02  0.28171578804E+02  0.00000000000E+00 0.  1.
         -2    1    1    2    0  502  0.12121360719E+02 -0.18042768591E+02  0.33112071964E+02  0.39609067066E+02  0.00000000000E+00 0. -1.
<mgrwt>
<rscale>  2 0.21736349E+02</rscale>
<asrwt>0</asrwt>
<pdfrwt beam="1">  1       21 0.91395309E-02 0.21736349E+02</pdfrwt>
<pdfrwt beam="2">  1       21 0.12882605E-02 0.21736349E+02</pdfrwt>
<totfact> 0.15537192E+08</totfact>
</mgrwt>
</event>
<event>
 4    1  0.7499963E+004  0.3681985E+02  0.7546771E-02  0.1533009E+00
         21   -1    0    0  503  502  0.00000000000E+00  0.00000000000E+00  0.14866241589E+01  0.14866241589E+01  0.00000000000E+00 0.  1.
         21   -1    0    0  501  503 -0.00000000000E+00 -0.00000000000E+00 -0.95504133515E+03  0.95504133515E+03  0.00000000000E+00 0.  1.
          2    1    1    2  501    0  0.22629661880E+02 -0.29044790230E+02 -0.37516702415E+03  0.37696949139E+03  0.00000000000E+00 0.  1.
         -2    1    1    2    0  502 -0.22629661880E+02  0.29044790230E+02 -0.57838768685E+03  0.57955846791E+03  0.00000000000E+00 0. -1.
<mgrwt>
<rscale>  2 0.36819851E+02</rscale>
<asrwt>0</asrwt>
<pdfrwt beam="1">  1       21 0.22871203E-03 0.36819851E+02</pdfrwt>
<pdfrwt beam="2">  1       21 0.14692904E+00 0.36819851E+02</pdfrwt>
<totfact> 0.10728577E+07</totfact>
</mgrwt>
</event>
<event>
 4    1  0.7499963E+004  0.2137194E+02  0.7546771E-02  0.1719346E+00
         21   -1    0    0  501  502  0.00000000000E+00  0.00000000000E+00  0.39767203475E+02  0.39767203475E+02  0.00000000000E+00 0.  1.
         21   -1    0    0  502  503 -0.00000000000E+00 -0.00000000000E+00 -0.18740785594E+02  0.18740785594E+02  0.00000000000E+00 0.  1.
          2    1    1    2  501    0  0.12119734524E+02  0.17603180593E+02  0.28714752219E+02  0.35795208156E+02  0.00000000000E+00 0. -1.
         -2    1    1    2    0  503 -0.12119734524E+02 -0.17603180593E+02 -0.76883343376E+01  0.22712780913E+02  0.00000000000E+00 0.  1.
<mgrwt>
<rscale>  2 0.21371943E+02</rscale>
<asrwt>0</asrwt>
<pdfrwt beam="1">  1       21 0.61180313E-02 0.21371943E+02</pdfrwt>
<pdfrwt beam="2">  1       21 0.28831978E-02 0.21371943E+02</pdfrwt>
<totfact> 0.86458469E+07</totfact>
</mgrwt>
</event>
<event>
 4    1  0.7499963E+004  0.2026652E+02  0.7546771E-02  0.1740079E+00
         21   -1    0    0  503  502  0.00000000000E+00  0.00000000000E+00  0.11708098260E+01  0.11708098260E+01  0.00000000000E+00 0.  1.
         21   -1    0    0  501  503 -0.00000000000E+00 -0.00000000000E+00 -0.35325853638E+03  0.35325853638E+03  0.00000000000E+00 0.  1.
          2    1    1    2  501    0 -0.15535828667E+02  0.13014222733E+02 -0.19079731710E+03  0.19187065481E+03  0.00000000000E+00 0. -1.
         -2    1    1    2    0  502  0.15535828667E+02 -0.13014222733E+02 -0.16129040946E+03  0.16255869140E+03  0.00000000000E+00 0.  1.
<mgrwt>
<rscale>  2 0.20266523E+02</rscale>
<asrwt>0</asrwt>
<pdfrwt beam="1">  1       21 0.18012441E-03 0.20266523E+02</pdfrwt>
<pdfrwt beam="2">  1       21 0.54347522E-01 0.20266523E+02</pdfrwt>
<totfact> 0.11693506E+08</totfact>
</mgrwt>
</event>
<event>
 4    1  0.7499963E+004  0.2097603E+02  0.7546771E-02  0.1726587E+00
         21   -1    0    0  503  502  0.00000000000E+00  0.00000000000E+00  0.20121255699E+01  0.20121255699E+01  0.00000000000E+00 0.  1.
         21   -1    0    0  501  503 -0.00000000000E+00 -0.00000000000E+00 -0.27258578154E+03  0.27258578154E+03  0.00000000000E+00 0.  1.
          3    1    1    2  501    0 -0.17825816199E+02 -0.11055952183E+02 -0.19634853900E+03  0.19746580101E+03  0.00000000000E+00 0.  1.
         -3    1    1    2    0  502  0.17825816199E+02  0.11055952183E+02 -0.74225116962E+02  0.77132106090E+02  0.00000000000E+00 0. -1.
<mgrwt>
<rscale>  2 0.20976029E+02</rscale>
<asrwt>0</asrwt>
<pdfrwt beam="1">  1       21 0.30955783E-03 0.20976029E+02</pdfrwt>
<pdfrwt beam="2">  1       21 0.41936267E-01 0.20976029E+02</pdfrwt>
<totfact> 0.88887976E+07</totfact>
</mgrwt>
</event>
<event>
 4    1  0.7499963E+004  0.2605951E+02  0.7546771E-02  0.1646234E+00
         21   -1    0    0  501  502  0.00000000000E+00  0.00000000000E+00  0.49055824604E+02  0.49055824604E+02  0.00000000000E+00 0. -1.
         21   -1    0    0  502  503 -0.00000000000E+00 -0.00000000000E+00 -0.24474518655E+02  0.24474518655E+02  0.00000000000E+00 0. -1.
          1    1    1    2  501    0 -0.15828997937E+02 -0.20701231380E+02 -0.11940245591E+02  0.28664745265E+02  0.00000000000E+00 0.  1.
         -1    1    1    2    0  503  0.15828997937E+02  0.20701231380E+02  0.36521551540E+02  0.44865597993E+02  0.00000000000E+00 0. -1.
<mgrwt>
<rscale>  2 0.26059512E+02</rscale>
<asrwt>0</asrwt>
<pdfrwt beam="1">  1       21 0.75470499E-02 0.26059512E+02</pdfrwt>
<pdfrwt beam="2">  1       21 0.37653106E-02 0.26059512E+02</pdfrwt>
<totfact> 0.42695667E+07</totfact>
</mgrwt>
</event>
<event>
 4    1  0.7499963E+004  0.4745281E+02  0.7546771E-02  0.1459585E+00
         21   -1    0    0  503  502  0.00000000000E+00  0.00000000000E+00  0.15273224412E+02  0.15273224412E+02  0.00000000000E+00 0.  1.
         21   -1    0    0  501  503 -0.00000000000E+00 -0.00000000000E+00 -0.15184441049E+03  0.15184441049E+03  0.00000000000E+00 0.  1.
          4    1    1    2  501    0 -0.47267340634E+02 -0.41914321941E+01 -0.82528755606E+02  0.95198556167E+02  0.00000000000E+00 0. -1.
         -4    1    1    2    0  502  0.47267340634E+02  0.41914321941E+01 -0.54042430467E+02  0.71919078729E+02  0.00000000000E+00 0.  1.
<mgrwt>
<rscale>  2 0.47452814E+02</rscale>
<asrwt>0</asrwt>
<pdfrwt beam="1">  1       21 0.23497269E-02 0.47452814E+02</pdfrwt>
<pdfrwt beam="2">  1       21 0.23360678E-01 0.47452814E+02</pdfrwt>
<totfact> 0.14364808E+07</totfact>
</mgrwt>
</event>
<event>
 4    1  0.7499963E+004  0.2252442E+02  0.7546771E-02  0.1699337E+00
         21   -1    0    0  503  502  0.00000000000E+00  0.00000000000E+00  0.94479410491E+01  0.94479410491E+01  0.00000000000E+00 0.  1.
         21   -1    0    0  501  503 -0.00000000000E+00 -0.00000000000E+00 -0.55293557499E+02  0.55293557499E+02  0.00000000000E+00 0.  1.
          3    1    1    2  501    0 -0.21322085895E+02  0.72607193746E+01 -0.28419128812E+02  0.36262877371E+02  0.00000000000E+00 0.  1.
         -3    1    1    2    0  502  0.21322085895E+02 -0.72607193746E+01 -0.17426487637E+02  0.28478621177E+02  0.00000000000E+00 0. -1.
<mgrwt>
<rscale>  2 0.22524418E+02</rscale>
<asrwt>0</asrwt>
<pdfrwt beam="1">  1       21 0.14535294E-02 0.22524418E+02</pdfrwt>
<pdfrwt beam="2">  1       21 0.85067012E-02 0.22524418E+02</pdfrwt>
<totfact> 0.14715761E+08</totfact>
</mgrwt>
</event>
<event>
 4    1  0.7499963E+004  0.2524198E+02  0.7546771E-02  0.1657550E+00
         21   -1    0    0  503  502  0.00000000000E+00  0.00000000000E+00  0.95246753071E+01  0.95246753071E+01  0.00000000000E+00 0.  1.
         21   -1    0    0  501  503 -0.00000000000E+00 -0.00000000000E+00 -0.15250363464E+03  0.15250363464E+03  0.00000000000E+00 0.  1.
          4    1    1    2  501    0 -0.11048355140E+02 -0.22695620120E+02 -0.13218805309E+03  0.13457651617E+03  0.00000000000E+00 0. -1.
         -4    1    1    2    0  502  0.11048355140E+02  0.22695620120E+02 -0.10790906235E+02  0.27451793772E+02  0.00000000000E+00 0.  1.
<mgrwt>
<rscale>  2 0.25241975E+02</rscale>
<asrwt>0</asrwt>
<pdfrwt beam="1">  1       21 0.14653348E-02 0.25241975E+02</pdfrwt>
<pdfrwt beam="2">  1       21 0.23462096E-01 0.25241975E+02</pdfrwt>
<totfact> 0.26662822E+07</totfact>
</mgrwt>
</event>
<event>
 4    1  0.7499963E+004  0.4640089E+02  0.7546771E-02  0.1465781E+00
         21   -1    0    0  501  502  0.00000000000E+00  0.00000000000E+00  0.22973768229E+03  0.22973768229E+03  0.00000000000E+00 0. -1.
         21   -1    0    0  502  503 -0.00000000000E+00 -0.00000000000E+00 -0.93869195860E+01  0.93869195860E+01  0.00000000000E+00 0. -1.
          5    1    1    2  501    0  0.44598981679E+02 -0.12805194195E+02  0.10536763445E+03  0.11513201359E+03  0.00000000000E+00 0.  1.
         -5    1    1    2    0  503 -0.44598981679E+02  0.12805194195E+02  0.11498312826E+03  0.12399258828E+03  0.00000000000E+00 0. -1.
<mgrwt>
<rscale>  2 0.46400885E+02</rscale>
<asrwt>0</asrwt>
<pdfrwt beam="1">  1       21 0.35344255E-01 0.46400885E+02</pdfrwt>
<pdfrwt beam="2">  1       21 0.14441416E-02 0.46400885E+02</pdfrwt>
<totfact> 0.14207186E+07</totfact>
</mgrwt>
</event>
<event>
 4    1  0.7499963E+004  0.2210133E+02  0.7546771E-02  0.1706505E+00
         21   -1    0    0  501  502  0.00000000000E+00  0.00000000000E+00  0.31372390570E+02  0.31372390570E+02  0.00000000000E+00 0.  1.
         21   -1    0    0  502  503 -0.00000000000E+00 -0.00000000000E+00 -0.17021910551E+02  0.17021910551E+02  0.00000000000E+00 0.  1.
          1    1    1    2  501    0  0.63338628992E+01  0.21174304586E+02  0.14242089547E+02  0.26292700672E+02  0.00000000000E+00 0.  1.
         -1    1    1    2    0  503 -0.63338628992E+01 -0.21174304586E+02  0.10839047213E+00  0.22101600450E+02  0.00000000000E+00 0. -1.
<mgrwt>
<rscale>  2 0.22101335E+02</rscale>
<asrwt>0</asrwt>
<pdfrwt beam="1">  1       21 0.48265216E-02 0.22101335E+02</pdfrwt>
<pdfrwt beam="2">  1       21 0.26187555E-02 0.22101335E+02</pdfrwt>
<totfact> 0.14792451E+08</totfact>
</mgrwt>
</event>
<event>
 4    1  0.7499963E+004  0.2197509E+02  0.7546771E-02  0.1708683E+00
         21   -1    0    0  501  502  0.00000000000E+00  0.00000000000E+00  0.16346686013E+02  0.16346686013E+02  0.00000000000E+00 0.  1.
         21   -1    0    0  502  503 -0.00000000000E+00 -0.00000000000E+00 -0.31135802596E+02  0.31135802596E+02  0.00000000000E+00 0.  1.
          1    1    1    2  501    0 -0.21317776751E+02 -0.53345024478E+01 -0.20221623776E+01  0.22067932904E+02  0.00000000000E+00 0.  1.
         -1    1    1    2    0  503  0.21317776751E+02  0.53345024478E+01 -0.12766954206E+02  0.25414555705E+02  0.00000000000E+00 0. -1.
<mgrwt>
<rscale>  2 0.21975089E+02</rscale>
<asrwt>0</asrwt>
<pdfrwt beam="1">  1       21 0.25148748E-02 0.21975089E+02</pdfrwt>
<pdfrwt beam="2">  1       21 0.47901235E-02 0.21975089E+02</pdfrwt>
<totfact> 0.15909485E+08</totfact>
</mgrwt>
</event>
<event>
 4    1  0.7499963E+004  0.2054550E+02  0.7546771E-02  0.1734693E+00
         21   -1    0    0  501  502  0.00000000000E+00  0.00000000000E+00  0.37192307184E+01  0.37192307184E+01  0.00000000000E+00 0.  1.
         21   -1    0    0  502  503 -0.00000000000E+00 -0.00000000000E+00 -0.13878883902E+03  0.13878883902E+03  0.00000000000E+00 0.  1.
          3    1    1    2  501    0  0.18556325986E+02 -0.88193059727E+01 -0.37116713865E+02  0.42423670752E+02  0.00000000000E+00 0.  1.
         -3    1    1    2    0  503 -0.18556325986E+02  0.88193059727E+01 -0.97952894436E+02  0.10008439899E+03  0.00000000000E+00 0. -1.
<mgrwt>
<rscale>  2 0.20545496E+02</rscale>
<asrwt>0</asrwt>
<pdfrwt beam="1">  1       21 0.57218936E-03 0.20545496E+02</pdfrwt>
<pdfrwt beam="2">  1       21 0.21352128E-01 0.20545496E+02</pdfrwt>
<totfact> 0.12222996E+08</totfact>
</mgrwt>
</event>
