<event>
 4    1  0.9374408E+003  0.2488106E+02  0.7546771E-02  0.1662716E+00
         21   -1    0    0  504  501  0.00000000000E+00  0.00000000000E+00  0.39184944127E+02  0.39184944127E+02  0.00000000000E+00 0. -1.
         21   -1    0    0  501  502 -0.00000000000E+00 -0.00000000000E+00 -0.73344799932E+02  0.73344799932E+02  0.00000000000E+00 0. -1.
         21    1    1    2  503  502 -0.18601846288E+02 -0.16523879681E+02  0.32758116634E+02  0.41135890539E+02  0.00000000000E+00 0. -1.
         21    1    1    2  504  503  0.18601846288E+02  0.16523879681E+02 -0.66917972439E+02  0.71393853520E+02  0.00000000000E+00 0. -1.
<mgrwt>
<rscale>  2 0.24881063E+02</rscale>
<asrwt>0</asrwt>
<pdfrwt beam="1">  1       21 0.60284530E-02 0.24881063E+02</pdfrwt>
<pdfrwt beam="2">  1       21 0.11283815E-01 0.24881063E+02</pdfrwt>
<totfact> 0.10269054E+07</totfact>
</mgrwt>
</event>
<event>
 4    1  0.9374408E+003  0.2195823E+02  0.7546771E-02  0.1708975E+00
         21   -1    0    0  502  501  0.00000000000E+00  0.00000000000E+00  0.15237824564E+02  0.15237824564E+02  0.00000000000E+00 0. -1.
         21   -1    0    0  504  502 -0.00000000000E+00 -0.00000000000E+00 -0.13294222529E+03  0.13294222529E+03  0.00000000000E+00 0. -1.
         21    1    1    2  503  501 -0.10260931271E+02 -0.19413327040E+02  0.58221754643E+01  0.22716991537E+02  0.00000000000E+00 0. -1.
         21    1    1    2  504  503  0.10260931271E+02  0.19413327040E+02 -0.12352657619E+03  0.12546305832E+03  0.00000000000E+00 0. -1.
<mgrwt>
<rscale>  2 0.21958233E+02</rscale>
<asrwt>0</asrwt>
<pdfrwt beam="1">  1       21 0.23442807E-02 0.21958233E+02</pdfrwt>
<pdfrwt beam="2">  1       21 0.20452650E-01 0.21958233E+02</pdfrwt>
<totfact> 0.16045390E+07</totfact>
</mgrwt>
</event>
<event>
 4    1  0.9374408E+003  0.2631990E+02  0.7546771E-02  0.1642737E+00
         21   -1    0    0  502  501  0.00000000000E+00  0.00000000000E+00  0.40124532728E+01  0.40124532728E+01  0.00000000000E+00 0. -1.
         21   -1    0    0  503  502 -0.00000000000E+00 -0.00000000000E+00 -0.46179554972E+03  0.46179554972E+03  0.00000000000E+00 0. -1.
         21    1    1    2  503  504  0.15179541765E+02  0.21501600039E+02 -0.44596899976E+02  0.51784368104E+02  0.00000000000E+00 0.  1.
         21    1    1    2  504  501 -0.15179541765E+02 -0.21501600039E+02 -0.41318619647E+03  0.41402363489E+03  0.00000000000E+00 0.  1.
<mgrwt>
<rscale>  2 0.26319903E+02</rscale>
<asrwt>0</asrwt>
<pdfrwt beam="1">  1       21 0.61730034E-03 0.26319903E+02</pdfrwt>
<pdfrwt beam="2">  1       21 0.71045488E-01 0.26319903E+02</pdfrwt>
<totfact> 0.11947473E+07</totfact>
</mgrwt>
</event>
<event>
 4    1  0.9374408E+003  0.2479300E+02  0.7546771E-02  0.1663993E+00
         21   -1    0    0  504  501  0.00000000000E+00  0.00000000000E+00  0.34843834290E+02  0.34843834290E+02  0.00000000000E+00 0. -1.
         21   -1    0    0  501  502 -0.00000000000E+00 -0.00000000000E+00 -0.25977463920E+02  0.25977463920E+02  0.00000000000E+00 0. -1.
         21    1    1    2  503  502 -0.71533158873E+01  0.23738635758E+02 -0.12793780029E+02  0.27899347004E+02  0.00000000000E+00 0. -1.
         21    1    1    2  504  503  0.71533158873E+01 -0.23738635758E+02  0.21660150399E+02  0.32921951205E+02  0.00000000000E+00 0. -1.
<mgrwt>
<rscale>  2 0.24792998E+02</rscale>
<asrwt>0</asrwt>
<pdfrwt beam="1">  1       21 0.53605899E-02 0.24792998E+02</pdfrwt>
<pdfrwt beam="2">  1       21 0.39965329E-02 0.24792998E+02</pdfrwt>
<totfact> 0.66777290E+07</totfact>
</mgrwt>
</event>
<event>
 4    1  0.9374408E+003  0.3508155E+02  0.7546771E-02  0.1547878E+00
         21   -1    0    0  502  501  0.00000000000E+00  0.00000000000E+00  0.20166488328E+02  0.20166488328E+02  0.00000000000E+00 0. -1.
         21   -1    0    0  504  502 -0.00000000000E+00 -0.00000000000E+00 -0.73756282487E+02  0.73756282487E+02  0.00000000000E+00 0. -1.
         21    1    1    2  503  501  0.11263302222E+02 -0.33224287521E+02 -0.72860912849E+01  0.35830188172E+02  0.00000000000E+00 0.  1.
         21    1    1    2  504  503 -0.11263302222E+02  0.33224287521E+02 -0.46303702874E+02  0.58092582643E+02  0.00000000000E+00 0.  1.
<mgrwt>
<rscale>  2 0.35081552E+02</rscale>
<asrwt>0</asrwt>
<pdfrwt beam="1">  1       21 0.31025367E-02 0.35081552E+02</pdfrwt>
<pdfrwt beam="2">  1       21 0.11347120E-01 0.35081552E+02</pdfrwt>
<totfact> 0.31318750E+07</totfact>
</mgrwt>
</event>
<event>
 4    1  0.9374408E+003  0.3293815E+02  0.7546771E-02  0.1567711E+00
         21   -1    0    0  502  501  0.00000000000E+00  0.00000000000E+00  0.44996801405E+01  0.44996801405E+01  0.00000000000E+00 0. -1.
         21   -1    0    0  503  502 -0.00000000000E+00 -0.00000000000E+00 -0.49084310190E+03  0.49084310190E+03  0.00000000000E+00 0. -1.
         21    1    1    2  503  504 -0.14950266761E+02 -0.29349813877E+02 -0.66510278721E+02  0.74219533995E+02  0.00000000000E+00 0.  1.
         21    1    1    2  504  501  0.14950266761E+02  0.29349813877E+02 -0.41983314304E+03  0.42112324804E+03  0.00000000000E+00 0.  1.
<mgrwt>
<rscale>  2 0.32938155E+02</rscale>
<asrwt>0</asrwt>
<pdfrwt beam="1">  1       21 0.69225888E-03 0.32938155E+02</pdfrwt>
<pdfrwt beam="2">  1       21 0.75514280E-01 0.32938155E+02</pdfrwt>
<totfact> 0.91585105E+06</totfact>
</mgrwt>
</event>
<event>
 4    1  0.9374408E+003  0.2261363E+02  0.7546771E-02  0.1697851E+00
         21   -1    0    0  504  501  0.00000000000E+00  0.00000000000E+00  0.12762899234E+02  0.12762899234E+02  0.00000000000E+00 0. -1.
         21   -1    0    0  501  502 -0.00000000000E+00 -0.00000000000E+00 -0.91590342258E+02  0.91590342258E+02  0.00000000000E+00 0. -1.
         21    1    1    2  503  502 -0.13437228123E+02  0.18188384670E+02 -0.27998167874E+00  0.22615367039E+02  0.00000000000E+00 0.  1.
         21    1    1    2  504  503  0.13437228123E+02 -0.18188384670E+02 -0.78547461345E+02  0.81737874454E+02  0.00000000000E+00 0.  1.
<mgrwt>
<rscale>  2 0.22613634E+02</rscale>
<asrwt>0</asrwt>
<pdfrwt beam="1">  1       21 0.19635230E-02 0.22613634E+02</pdfrwt>
<pdfrwt beam="2">  1       21 0.14090822E-01 0.22613634E+02</pdfrwt>
<totfact> 0.40228954E+07</totfact>
</mgrwt>
</event>
<event>
 4    1  0.9374408E+003  0.2807432E+02  0.7546771E-02  0.1620405E+00
         21   -1    0    0  503  501  0.00000000000E+00  0.00000000000E+00  0.21741370843E+02  0.21741370843E+02  0.00000000000E+00 0.  1.
         21   -1    0    0  501  502 -0.00000000000E+00 -0.00000000000E+00 -0.45548398481E+02  0.45548398481E+02  0.00000000000E+00 0.  1.
         21    1    1    2  503  504  0.25948368687E+02 -0.10716803248E+02  0.32963730232E+01  0.28267185648E+02  0.00000000000E+00 0.  1.
         21    1    1    2  504  502 -0.25948368687E+02  0.10716803248E+02 -0.27103400661E+02  0.39022583676E+02  0.00000000000E+00 0.  1.
<mgrwt>
<rscale>  2 0.28074325E+02</rscale>
<asrwt>0</asrwt>
<pdfrwt beam="1">  1       21 0.33448263E-02 0.28074325E+02</pdfrwt>
<pdfrwt beam="2">  1       21 0.70074458E-02 0.28074325E+02</pdfrwt>
<totfact> 0.59125381E+07</totfact>
</mgrwt>
</event>
<event>
 4    1  0.9374408E+003  0.2899171E+02  0.7546771E-02  0.1609509E+00
         21   -1    0    0  502  501  0.00000000000E+00  0.00000000000E+00  0.17980500628E+03  0.17980500628E+03  0.00000000000E+00 0.  1.
         21   -1    0    0  503  502 -0.00000000000E+00 -0.00000000000E+00 -0.85269845205E+01  0.85269845205E+01  0.00000000000E+00 0.  1.
         21    1    1    2  503  504  0.28991517895E+02 -0.10667627627E+00  0.14893267471E+03  0.15172824749E+03  0.00000000000E+00 0.  1.
         21    1    1    2  504  501 -0.28991517895E+02  0.10667627627E+00  0.22345347049E+02  0.36603743312E+02  0.00000000000E+00 0.  1.
<mgrwt>
<rscale>  2 0.28991714E+02</rscale>
<asrwt>0</asrwt>
<pdfrwt beam="1">  1       21 0.27662306E-01 0.28991714E+02</pdfrwt>
<pdfrwt beam="2">  1       21 0.13118439E-02 0.28991714E+02</pdfrwt>
<totfact> 0.24138407E+07</totfact>
</mgrwt>
</event>
<event>
 4    1  0.9374408E+003  0.3096372E+02  0.7546771E-02  0.1587674E+00
         21   -1    0    0  502  501  0.00000000000E+00  0.00000000000E+00  0.38105770653E+01  0.38105770653E+01  0.00000000000E+00 0.  1.
         21   -1    0    0  504  502 -0.00000000000E+00 -0.00000000000E+00 -0.51951707075E+03  0.51951707075E+03  0.00000000000E+00 0.  1.
         21    1    1    2  503  501 -0.70274453998E+00  0.30955746446E+02 -0.44575967945E+03  0.44683379898E+03  0.00000000000E+00 0.  1.
         21    1    1    2  504  503  0.70274453998E+00 -0.30955746446E+02 -0.69946814232E+02  0.76493848832E+02  0.00000000000E+00 0.  1.
<mgrwt>
<rscale>  2 0.30963722E+02</rscale>
<asrwt>0</asrwt>
<pdfrwt beam="1">  1       21 0.58624276E-03 0.30963722E+02</pdfrwt>
<pdfrwt beam="2">  1       21 0.79925685E-01 0.30963722E+02</pdfrwt>
<totfact> 0.10334030E+07</totfact>
</mgrwt>
</event>
<event>
 4    1  0.9374408E+003  0.4857608E+02  0.7546771E-02  0.1453177E+00
         21   -1    0    0  504  501  0.00000000000E+00  0.00000000000E+00  0.83603803286E+03  0.83603803286E+03  0.00000000000E+00 0. -1.
         21   -1    0    0  501  502 -0.00000000000E+00 -0.00000000000E+00 -0.38270279841E+01  0.38270279841E+01  0.00000000000E+00 0. -1.
         21    1    1    2  503  502 -0.29215685229E+02  0.38808242057E+02  0.63126017113E+03  0.63312640094E+03  0.00000000000E+00 0.  1.
         21    1    1    2  504  503  0.29215685229E+02 -0.38808242057E+02  0.20095083375E+03  0.20673865991E+03  0.00000000000E+00 0.  1.
<mgrwt>
<rscale>  2 0.48576084E+02</rscale>
<asrwt>0</asrwt>
<pdfrwt beam="1">  1       21 0.12862109E+00 0.48576084E+02</pdfrwt>
<pdfrwt beam="2">  1       21 0.58877420E-03 0.48576084E+02</pdfrwt>
<totfact> 0.36882409E+06</totfact>
</mgrwt>
</event>
<event>
 4    1  0.9374408E+003  0.2119749E+02  0.7546771E-02  0.1722512E+00
         21   -1    0    0  502  501  0.00000000000E+00  0.00000000000E+00  0.22115971630E+01  0.22115971630E+01  0.00000000000E+00 0.  1.
         21   -1    0    0  503  502 -0.00000000000E+00 -0.00000000000E+00 -0.22760077250E+03  0.22760077250E+03  0.00000000000E+00 0.  1.
         21    1    1    2  503  504  0.10680475270E+02 -0.18310139408E+02 -0.75049282228E+02  0.77985437872E+02  0.00000000000E+00 0.  1.
         21    1    1    2  504  501 -0.10680475270E+02  0.18310139408E+02 -0.15033989311E+03  0.15182693179E+03  0.00000000000E+00 0.  1.
<mgrwt>
<rscale>  2 0.21197494E+02</rscale>
<asrwt>0</asrwt>
<pdfrwt beam="1">  1       21 0.34024578E-03 0.21197494E+02</pdfrwt>
<pdfrwt beam="2">  1       21 0.35015497E-01 0.21197494E+02</pdfrwt>
<totfact> 0.10877928E+08</totfact>
</mgrwt>
</event>
<event>
 4    1  0.9374408E+003  0.2086238E+02  0.7546771E-02  0.1728703E+00
         21   -1    0    0  503  501  0.00000000000E+00  0.00000000000E+00  0.21255236151E+02  0.21255236151E+02  0.00000000000E+00 0. -1.
         21   -1    0    0  501  502 -0.00000000000E+00 -0.00000000000E+00 -0.38488124856E+02  0.38488124856E+02  0.00000000000E+00 0. -1.
         21    1    1    2  503  504  0.17351545081E+02  0.11582866703E+02 -0.29051192055E+02  0.35766054823E+02  0.00000000000E+00 0.  1.
         21    1    1    2  504  502 -0.17351545081E+02 -0.11582866703E+02  0.11818303350E+02  0.23977306184E+02  0.00000000000E+00 0.  1.
<mgrwt>
<rscale>  2 0.20862380E+02</rscale>
<asrwt>0</asrwt>
<pdfrwt beam="1">  1       21 0.32700364E-02 0.20862380E+02</pdfrwt>
<pdfrwt beam="2">  1       21 0.59212499E-02 0.20862380E+02</pdfrwt>
<totfact> 0.74406904E+07</totfact>
</mgrwt>
</event>
<event>
 4    1  0.9374408E+003  0.2960025E+02  0.7546771E-02  0.1602550E+00
         21   -1    0    0  504  501  0.00000000000E+00  0.00000000000E+00  0.19931469250E+03  0.19931469250E+03  0.00000000000E+00 0. -1.
         21   -1    0    0  501  502 -0.00000000000E+00 -0.00000000000E+00 -0.50405454072E+01  0.50405454072E+01  0.00000000000E+00 0. -1.
         21    1    1    2  503  502 -0.25401344719E+02 -0.15196931708E+02  0.13367674440E+03  0.13691474369E+03  0.00000000000E+00 0. -1.
         21    1    1    2  504  503  0.25401344719E+02  0.15196931708E+02  0.60597402690E+02  0.67440494213E+02  0.00000000000E+00 0. -1.
<mgrwt>
<rscale>  2 0.29600254E+02</rscale>
<asrwt>0</asrwt>
<pdfrwt beam="1">  1       21 0.30663793E-01 0.29600254E+02</pdfrwt>
<pdfrwt beam="2">  1       21 0.77546868E-03 0.29600254E+02</pdfrwt>
<totfact> 0.44510475E+07</totfact>
</mgrwt>
</event>
<event>
 4    1  0.9374408E+003  0.2145819E+02  0.7546771E-02  0.1717794E+00
         21   -1    0    0  504  501  0.00000000000E+00  0.00000000000E+00  0.95265681474E+00  0.95265681474E+00  0.00000000000E+00 0.  1.
         21   -1    0    0  501  502 -0.00000000000E+00 -0.00000000000E+00 -0.51530567121E+03  0.51530567121E+03  0.00000000000E+00 0.  1.
         21    1    1    2  503  502 -0.89269850270E+01  0.19513143247E+02 -0.32147047489E+03  0.32218584706E+03  0.00000000000E+00 0.  1.
         21    1    1    2  504  503  0.89269850270E+01 -0.19513143247E+02 -0.19288253951E+03  0.19407248096E+03  0.00000000000E+00 0.  1.
<mgrwt>
<rscale>  2 0.21458188E+02</rscale>
<asrwt>0</asrwt>
<pdfrwt beam="1">  1       21 0.14656295E-03 0.21458188E+02</pdfrwt>
<pdfrwt beam="2">  1       21 0.79277600E-01 0.21458188E+02</pdfrwt>
<totfact> 0.74375203E+07</totfact>
</mgrwt>
</event>
<event>
 4    1  0.9374408E+003  0.2465349E+02  0.7546771E-02  0.1666029E+00
         21   -1    0    0  502  501  0.00000000000E+00  0.00000000000E+00  0.66761998019E+03  0.66761998019E+03  0.00000000000E+00 0.  1.
         21   -1    0    0  503  502 -0.00000000000E+00 -0.00000000000E+00 -0.11094662428E+01  0.11094662428E+01  0.00000000000E+00 0.  1.
         21    1    1    2  503  504 -0.17592793967E+02  0.17271015183E+02  0.19161932933E+03  0.19319876226E+03  0.00000000000E+00 0. -1.
         21    1    1    2  504  501  0.17592793967E+02 -0.17271015183E+02  0.47489118461E+03  0.47553068417E+03  0.00000000000E+00 0. -1.
<mgrwt>
<rscale>  2 0.24653486E+02</rscale>
<asrwt>0</asrwt>
<pdfrwt beam="1">  1       21 0.10271045E+00 0.24653486E+02</pdfrwt>
<pdfrwt beam="2">  1       21 0.17068765E-03 0.24653486E+02</pdfrwt>
<totfact> 0.35364359E+07</totfact>
</mgrwt>
</event>
<event>
 4    1  0.9374408E+003  0.3352508E+02  0.7546771E-02  0.1562102E+00
         21   -1    0    0  502  501  0.00000000000E+00  0.00000000000E+00  0.88102734662E+01  0.88102734662E+01  0.00000000000E+00 0.  1.
         21   -1    0    0  503  502 -0.00000000000E+00 -0.00000000000E+00 -0.22724867140E+03  0.22724867140E+03  0.00000000000E+00 0.  1.
         21    1    1    2  503  504 -0.15272945015E+02 -0.29844067864E+02 -0.31049262300E+02  0.45694506513E+02  0.00000000000E+00 0. -1.
         21    1    1    2  504  501  0.15272945015E+02  0.29844067864E+02 -0.18738913563E+03  0.19036443835E+03  0.00000000000E+00 0. -1.
<mgrwt>
<rscale>  2 0.33525084E+02</rscale>
<asrwt>0</asrwt>
<pdfrwt beam="1">  1       21 0.13554267E-02 0.33525084E+02</pdfrwt>
<pdfrwt beam="2">  1       21 0.34961333E-01 0.33525084E+02</pdfrwt>
<totfact> 0.15268657E+07</totfact>
</mgrwt>
</event>
<event>
 4    1  0.9374408E+003  0.2774660E+02  0.7546771E-02  0.1624422E+00
         21   -1    0    0  504  501  0.00000000000E+00  0.00000000000E+00  0.37204744107E+02  0.37204744107E+02  0.00000000000E+00 0. -1.
         21   -1    0    0  501  502 -0.00000000000E+00 -0.00000000000E+00 -0.24236287562E+02  0.24236287562E+02  0.00000000000E+00 0. -1.
         21    1    1    2  503  502 -0.27513249357E+02 -0.35909703350E+01  0.18230632276E+02  0.33199848061E+02  0.00000000000E+00 0.  1.
         21    1    1    2  504  503  0.27513249357E+02  0.35909703350E+01 -0.52621757311E+01  0.28241183607E+02  0.00000000000E+00 0.  1.
<mgrwt>
<rscale>  2 0.27746603E+02</rscale>
<asrwt>0</asrwt>
<pdfrwt beam="1">  1       21 0.57238068E-02 0.27746603E+02</pdfrwt>
<pdfrwt beam="2">  1       21 0.37286596E-02 0.27746603E+02</pdfrwt>
<totfact> 0.68971606E+07</totfact>
</mgrwt>
</event>
<event>
 4    1  0.9374408E+003  0.3289418E+02  0.7546771E-02  0.1568137E+00
         21   -1    0    0  502  501  0.00000000000E+00  0.00000000000E+00  0.11138997293E+03  0.11138997293E+03  0.00000000000E+00 0.  1.
         21   -1    0    0  504  502 -0.00000000000E+00 -0.00000000000E+00 -0.20817874820E+02  0.20817874820E+02  0.00000000000E+00 0.  1.
         21    1    1    2  503  501 -0.11805193796E+02  0.30702845303E+02 -0.29919136990E+01  0.33029969087E+02  0.00000000000E+00 0. -1.
         21    1    1    2  504  503  0.11805193796E+02 -0.30702845303E+02  0.93564011810E+02  0.99177878663E+02  0.00000000000E+00 0. -1.
<mgrwt>
<rscale>  2 0.32894184E+02</rscale>
<asrwt>0</asrwt>
<pdfrwt beam="1">  1       21 0.17136918E-01 0.32894184E+02</pdfrwt>
<pdfrwt beam="2">  1       21 0.32027501E-02 0.32894184E+02</pdfrwt>
<totfact> 0.14486691E+07</totfact>
</mgrwt>
</event>
<event>
 4    1  0.9374408E+003  0.2303156E+02  0.7546771E-02  0.1690999E+00
         21   -1    0    0  502  501  0.00000000000E+00  0.00000000000E+00  0.48756169098E+02  0.48756169098E+02  0.00000000000E+00 0.  1.
         21   -1    0    0  504  502 -0.00000000000E+00 -0.00000000000E+00 -0.11444476288E+02  0.11444476288E+02  0.00000000000E+00 0.  1.
         21    1    1    2  503  501  0.22098266638E+02  0.64899379473E+01  0.11969175971E+02  0.25955998466E+02  0.00000000000E+00 0.  1.
         21    1    1    2  504  503 -0.22098266638E+02 -0.64899379473E+01  0.25342516839E+02  0.34244646920E+02  0.00000000000E+00 0.  1.
<mgrwt>
<rscale>  2 0.23031558E+02</rscale>
<asrwt>0</asrwt>
<pdfrwt beam="1">  1       21 0.75009490E-02 0.23031558E+02</pdfrwt>
<pdfrwt beam="2">  1       21 0.17606887E-02 0.23031558E+02</pdfrwt>
<totfact> 0.13584029E+08</totfact>
</mgrwt>
</event>
<event>
 4    1  0.9374408E+003  0.2922136E+02  0.7546771E-02  0.1606858E+00
         21   -1    0    0  502  501  0.00000000000E+00  0.00000000000E+00  0.16619352919E+02  0.16619352919E+02  0.00000000000E+00 0. -1.
         21   -1    0    0  504  502 -0.00000000000E+00 -0.00000000000E+00 -0.60035485303E+02  0.60035485303E+02  0.00000000000E+00 0. -1.
         21    1    1    2  503  501  0.52388509125E+01  0.28747910933E+02 -0.71543792808E+01  0.30084432598E+02  0.00000000000E+00 0. -1.
         21    1    1    2  504  503 -0.52388509125E+01 -0.28747910933E+02 -0.36261753102E+02  0.46570405623E+02  0.00000000000E+00 0. -1.
<mgrwt>
<rscale>  2 0.29221361E+02</rscale>
<asrwt>0</asrwt>
<pdfrwt beam="1">  1       21 0.25568235E-02 0.29221361E+02</pdfrwt>
<pdfrwt beam="2">  1       21 0.92362285E-02 0.29221361E+02</pdfrwt>
<totfact> 0.57734970E+07</totfact>
</mgrwt>
</event>
<event>
 4    1  0.9374408E+003  0.2057162E+02  0.7546771E-02  0.1734194E+00
         21   -1    0    0  503  501  0.00000000000E+00  0.00000000000E+00  0.56662027253E+01  0.56662027253E+01  0.00000000000E+00 0. -1.
         21   -1    0    0  501  502 -0.00000000000E+00 -0.00000000000E+00 -0.12757333612E+03  0.12757333612E+03  0.00000000000E+00 0. -1.
         21    1    1    2  503  504  0.43517387548E+01  0.20106065848E+02 -0.10384741698E+03  0.10586537455E+03  0.00000000000E+00 0. -1.
         21    1    1    2  504  502 -0.43517387548E+01 -0.20106065848E+02 -0.18059716410E+02  0.27374164295E+02  0.00000000000E+00 0. -1.
<mgrwt>
<rscale>  2 0.20571619E+02</rscale>
<asrwt>0</asrwt>
<pdfrwt beam="1">  1       21 0.87172344E-03 0.20571619E+02</pdfrwt>
<pdfrwt beam="2">  1       21 0.19626668E-01 0.20571619E+02</pdfrwt>
<totfact> 0.75865805E+07</totfact>
</mgrwt>
</event>
<event>
 4    1  0.9374408E+003  0.2353984E+02  0.7546771E-02  0.1682906E+00
         21   -1    0    0  503  501  0.00000000000E+00  0.00000000000E+00  0.19071761524E+03  0.19071761524E+03  0.00000000000E+00 0. -1.
         21   -1    0    0  501  502 -0.00000000000E+00 -0.00000000000E+00 -0.32733094824E+01  0.32733094824E+01  0.00000000000E+00 0. -1.
         21    1    1    2  503  504 -0.13744024901E+02 -0.19110885133E+02  0.61206869359E+02  0.65577473325E+02  0.00000000000E+00 0. -1.
         21    1    1    2  504  502  0.13744024901E+02  0.19110885133E+02  0.12623743640E+03  0.12841345139E+03  0.00000000000E+00 0. -1.
<mgrwt>
<rscale>  2 0.23539842E+02</rscale>
<asrwt>0</asrwt>
<pdfrwt beam="1">  1       21 0.29341163E-01 0.23539842E+02</pdfrwt>
<pdfrwt beam="2">  1       21 0.50358622E-03 0.23539842E+02</pdfrwt>
<totfact> 0.87023089E+07</totfact>
</mgrwt>
</event>
<event>
 4    1  0.9374408E+003  0.2310741E+02  0.7546771E-02  0.1689775E+00
         21   -1    0    0  502  501  0.00000000000E+00  0.00000000000E+00  0.13770097371E+03  0.13770097371E+03  0.00000000000E+00 0.  1.
         21   -1    0    0  503  502 -0.00000000000E+00 -0.00000000000E+00 -0.55952865460E+01  0.55952865460E+01  0.00000000000E+00 0.  1.
         21    1    1    2  503  504 -0.12468105380E+02  0.19455045369E+02  0.10575030752E+03  0.10824546171E+03  0.00000000000E+00 0.  1.
         21    1    1    2  504  501  0.12468105380E+02 -0.19455045369E+02  0.26355379651E+02  0.35050798545E+02  0.00000000000E+00 0.  1.
<mgrwt>
<rscale>  2 0.23107411E+02</rscale>
<asrwt>0</asrwt>
<pdfrwt beam="1">  1       21 0.21184763E-01 0.23107411E+02</pdfrwt>
<pdfrwt beam="2">  1       21 0.86081342E-03 0.23107411E+02</pdfrwt>
<totfact> 0.69808864E+07</totfact>
</mgrwt>
</event>
<event>
 4    1  0.9374408E+003  0.3566143E+02  0.7546771E-02  0.1542804E+00
         21   -1    0    0  504  501  0.00000000000E+00  0.00000000000E+00  0.33831966770E+02  0.33831966770E+02  0.00000000000E+00 0.  1.
         21   -1    0    0  501  502 -0.00000000000E+00 -0.00000000000E+00 -0.74795415090E+02  0.74795415090E+02  0.00000000000E+00 0.  1.
         21    1    1    2  503  502  0.18824507295E+02  0.30288207672E+02  0.17825082166E+02  0.39868172182E+02  0.00000000000E+00 0.  1.
         21    1    1    2  504  503 -0.18824507295E+02 -0.30288207672E+02 -0.58788530486E+02  0.68759209678E+02  0.00000000000E+00 0.  1.
<mgrwt>
<rscale>  2 0.35661430E+02</rscale>
<asrwt>0</asrwt>
<pdfrwt beam="1">  1       21 0.52049180E-02 0.35661430E+02</pdfrwt>
<pdfrwt beam="2">  1       21 0.11506987E-01 0.35661430E+02</pdfrwt>
<totfact> 0.13393294E+07</totfact>
</mgrwt>
</event>
<event>
 4    1  0.9374408E+003  0.6242254E+02  0.7546771E-02  0.1387938E+00
         21   -1    0    0  502  501  0.00000000000E+00  0.00000000000E+00  0.11664080629E+03  0.11664080629E+03  0.00000000000E+00 0. -1.
         21   -1    0    0  503  502 -0.00000000000E+00 -0.00000000000E+00 -0.38309632639E+02  0.38309632639E+02  0.00000000000E+00 0. -1.
         21    1    1    2  503  504 -0.62209635126E+02  0.51512382049E+01  0.66882238167E+02  0.91486653342E+02  0.00000000000E+00 0.  1.
         21    1    1    2  504  501  0.62209635126E+02 -0.51512382049E+01  0.11448935488E+02  0.63463785590E+02  0.00000000000E+00 0.  1.
<mgrwt>
<rscale>  2 0.62422544E+02</rscale>
<asrwt>0</asrwt>
<pdfrwt beam="1">  1       21 0.17944739E-01 0.62422544E+02</pdfrwt>
<pdfrwt beam="2">  1       21 0.58937897E-02 0.62422544E+02</pdfrwt>
<totfact> 0.53779053E+06</totfact>
</mgrwt>
</event>
<event>
 4    1  0.9374408E+003  0.3786975E+02  0.7546771E-02  0.1524500E+00
         21   -1    0    0  502  501  0.00000000000E+00  0.00000000000E+00  0.99650027680E+02  0.99650027680E+02  0.00000000000E+00 0. -1.
         21   -1    0    0  503  502 -0.00000000000E+00 -0.00000000000E+00 -0.19717558363E+02  0.19717558363E+02  0.00000000000E+00 0. -1.
         21    1    1    2  503  504  0.37715447166E+02 -0.34151219688E+01  0.70985457332E+02  0.80455286748E+02  0.00000000000E+00 0. -1.
         21    1    1    2  504  501 -0.37715447166E+02  0.34151219688E+01  0.89470119854E+01  0.38912299295E+02  0.00000000000E+00 0. -1.
<mgrwt>
<rscale>  2 0.37869751E+02</rscale>
<asrwt>0</asrwt>
<pdfrwt beam="1">  1       21 0.15330773E-01 0.37869751E+02</pdfrwt>
<pdfrwt beam="2">  1       21 0.30334706E-02 0.37869751E+02</pdfrwt>
<totfact> 0.19617840E+07</totfact>
</mgrwt>
</event>
<event>
 4    1  0.9374408E+003  0.2349117E+02  0.7546771E-02  0.1683670E+00
         21   -1    0    0  502  501  0.00000000000E+00  0.00000000000E+00  0.13357845743E+02  0.13357845743E+02  0.00000000000E+00 0. -1.
         21   -1    0    0  503  502 -0.00000000000E+00 -0.00000000000E+00 -0.10155460781E+03  0.10155460781E+03  0.00000000000E+00 0. -1.
         21    1    1    2  503  504 -0.88644352381E+01  0.21754471861E+02  0.15436894484E+00  0.23491681247E+02  0.00000000000E+00 0.  1.
         21    1    1    2  504  501  0.88644352381E+01 -0.21754471861E+02 -0.88351131016E+02  0.91420772311E+02  0.00000000000E+00 0.  1.
<mgrwt>
<rscale>  2 0.23491174E+02</rscale>
<asrwt>0</asrwt>
<pdfrwt beam="1">  1       21 0.20550532E-02 0.23491174E+02</pdfrwt>
<pdfrwt beam="2">  1       21 0.15623786E-01 0.23491174E+02</pdfrwt>
<totfact> 0.31760517E+07</totfact>
</mgrwt>
</event>
<event>
 4    1  0.9374408E+003  0.2148243E+02  0.7546771E-02  0.1717360E+00
         21   -1    0    0  504  501  0.00000000000E+00  0.00000000000E+00  0.33085942776E+03  0.33085942776E+03  0.00000000000E+00 0. -1.
         21   -1    0    0  501  502 -0.00000000000E+00 -0.00000000000E+00 -0.15566899675E+01  0.15566899675E+01  0.00000000000E+00 0. -1.
         21    1    1    2  503  502  0.20528070781E+02 -0.63319169054E+01  0.21824482856E+03  0.21929956693E+03  0.00000000000E+00 0. -1.
         21    1    1    2  504  503 -0.20528070781E+02  0.63319169054E+01  0.11105790924E+03  0.11311655080E+03  0.00000000000E+00 0. -1.
<mgrwt>
<rscale>  2 0.21482431E+02</rscale>
<asrwt>0</asrwt>
<pdfrwt beam="1">  1       21 0.50901395E-01 0.21482431E+02</pdfrwt>
<pdfrwt beam="2">  1       21 0.23949103E-03 0.21482431E+02</pdfrwt>
<totfact> 0.89542923E+07</totfact>
</mgrwt>
</event>
<event>
 4    1  0.9374408E+003  0.2204277E+02  0.7546771E-02  0.1707513E+00
         21   -1    0    0  503  501  0.00000000000E+00  0.00000000000E+00  0.26451278673E+02  0.26451278673E+02  0.00000000000E+00 0. -1.
         21   -1    0    0  501  502 -0.00000000000E+00 -0.00000000000E+00 -0.30002746588E+02  0.30002746588E+02  0.00000000000E+00 0. -1.
         21    1    1    2  503  504  0.12764394500E+01 -0.22005781887E+02  0.15801238492E+02  0.27121262360E+02  0.00000000000E+00 0. -1.
         21    1    1    2  504  502 -0.12764394500E+01  0.22005781887E+02 -0.19352706407E+02  0.29332762901E+02  0.00000000000E+00 0. -1.
<mgrwt>
<rscale>  2 0.22042771E+02</rscale>
<asrwt>0</asrwt>
<pdfrwt beam="1">  1       21 0.40694275E-02 0.22042771E+02</pdfrwt>
<pdfrwt beam="2">  1       21 0.46158071E-02 0.22042771E+02</pdfrwt>
<totfact> 0.79754766E+07</totfact>
</mgrwt>
</event>
<event>
 4    1  0.9374408E+003  0.2108818E+02  0.7546771E-02  0.1724516E+00
         21   -1    0    0  502  501  0.00000000000E+00  0.00000000000E+00  0.46432265364E+02  0.46432265364E+02  0.00000000000E+00 0. -1.
         21   -1    0    0  503  502 -0.00000000000E+00 -0.00000000000E+00 -0.17047747296E+02  0.17047747296E+02  0.00000000000E+00 0. -1.
         21    1    1    2  503  504  0.93621883432E+01 -0.18896050617E+02  0.35702791981E+02  0.41465656328E+02  0.00000000000E+00 0.  1.
         21    1    1    2  504  501 -0.93621883432E+01  0.18896050617E+02 -0.63182739120E+01  0.22014356332E+02  0.00000000000E+00 0.  1.
<mgrwt>
<rscale>  2 0.21088179E+02</rscale>
<asrwt>0</asrwt>
<pdfrwt beam="1">  1       21 0.71434254E-02 0.21088179E+02</pdfrwt>
<pdfrwt beam="2">  1       21 0.26227304E-02 0.21088179E+02</pdfrwt>
<totfact> 0.77710080E+07</totfact>
</mgrwt>
</event>
<event>
 4    1  0.9374408E+003  0.2210783E+02  0.7546771E-02  0.1706394E+00
         21   -1    0    0  504  501  0.00000000000E+00  0.00000000000E+00  0.22999676025E+01  0.22999676025E+01  0.00000000000E+00 0. -1.
         21   -1    0    0  501  502 -0.00000000000E+00 -0.00000000000E+00 -0.68592626774E+03  0.68592626774E+03  0.00000000000E+00 0. -1.
         21    1    1    2  503  502 -0.19637477440E+02  0.10155070298E+02 -0.62769469627E+03  0.62808390179E+03  0.00000000000E+00 0. -1.
         21    1    1    2  504  503  0.19637477440E+02 -0.10155070298E+02 -0.55931603874E+02  0.60142333550E+02  0.00000000000E+00 0. -1.
<mgrwt>
<rscale>  2 0.22107826E+02</rscale>
<asrwt>0</asrwt>
<pdfrwt beam="1">  1       21 0.35384073E-03 0.22107826E+02</pdfrwt>
<pdfrwt beam="2">  1       21 0.10552725E+00 0.22107826E+02</pdfrwt>
<totfact> 0.11333489E+07</totfact>
</mgrwt>
</event>
<event>
 4    1  0.9374408E+003  0.2305304E+02  0.7546771E-02  0.1690652E+00
         21   -1    0    0  503  501  0.00000000000E+00  0.00000000000E+00  0.82924264777E+00  0.82924264777E+00  0.00000000000E+00 0.  1.
         21   -1    0    0  501  502 -0.00000000000E+00 -0.00000000000E+00 -0.71683365234E+03  0.71683365234E+03  0.00000000000E+00 0.  1.
         21    1    1    2  503  504  0.97111747479E+01 -0.20907787999E+02 -0.24119643312E+03  0.24229560843E+03  0.00000000000E+00 0. -1.
         21    1    1    2  504  502 -0.97111747479E+01  0.20907787999E+02 -0.47480797657E+03  0.47536728656E+03  0.00000000000E+00 0. -1.
<mgrwt>
<rscale>  2 0.23053037E+02</rscale>
<asrwt>0</asrwt>
<pdfrwt beam="1">  1       21 0.12757524E-03 0.23053037E+02</pdfrwt>
<pdfrwt beam="2">  1       21 0.11028258E+00 0.23053037E+02</pdfrwt>
<totfact> 0.45252057E+07</totfact>
</mgrwt>
</event>
<event>
 4    1  0.9374408E+003  0.2063121E+02  0.7546771E-02  0.1733059E+00
         21   -1    0    0  504  501  0.00000000000E+00  0.00000000000E+00  0.18989252587E+02  0.18989252587E+02  0.00000000000E+00 0. -1.
         21   -1    0    0  501  502 -0.00000000000E+00 -0.00000000000E+00 -0.25906682507E+02  0.25906682507E+02  0.00000000000E+00 0. -1.
         21    1    1    2  503  502 -0.12688720050E+02 -0.16267855429E+02  0.47822838548E+01  0.21178219369E+02  0.00000000000E+00 0. -1.
         21    1    1    2  504  503  0.12688720050E+02  0.16267855429E+02 -0.11699713776E+02  0.23717715725E+02  0.00000000000E+00 0. -1.
<mgrwt>
<rscale>  2 0.20631208E+02</rscale>
<asrwt>0</asrwt>
<pdfrwt beam="1">  1       21 0.29214235E-02 0.20631208E+02</pdfrwt>
<pdfrwt beam="2">  1       21 0.39856434E-02 0.20631208E+02</pdfrwt>
<totfact> 0.16534641E+08</totfact>
</mgrwt>
</event>
<event>
 4    1  0.9374408E+003  0.2209365E+02  0.7546771E-02  0.1706637E+00
         21   -1    0    0  503  501  0.00000000000E+00  0.00000000000E+00  0.15409543217E+04  0.15409543217E+04  0.00000000000E+00 0. -1.
         21   -1    0    0  501  502 -0.00000000000E+00 -0.00000000000E+00 -0.47130423891E+00  0.47130423891E+00  0.00000000000E+00 0. -1.
         21    1    1    2  503  504  0.35633636652E+01 -0.21804394945E+02  0.12115611565E+04  0.12117625861E+04  0.00000000000E+00 0. -1.
         21    1    1    2  504  502 -0.35633636652E+01  0.21804394945E+02  0.32892186106E+03  0.32966303991E+03  0.00000000000E+00 0. -1.
<mgrwt>
<rscale>  2 0.22093646E+02</rscale>
<asrwt>0</asrwt>
<pdfrwt beam="1">  1       21 0.23706586E+00 0.22093646E+02</pdfrwt>
<pdfrwt beam="2">  1       21 0.72509578E-04 0.22093646E+02</pdfrwt>
<totfact> 0.15533887E+07</totfact>
</mgrwt>
</event>
<event>
 4    1  0.9374408E+003  0.2012619E+02  0.7546771E-02  0.1742830E+00
         21   -1    0    0  502  501  0.00000000000E+00  0.00000000000E+00  0.13183937063E+02  0.13183937063E+02  0.00000000000E+00 0. -1.
         21   -1    0    0  503  502 -0.00000000000E+00 -0.00000000000E+00 -0.42409235343E+02  0.42409235343E+02  0.00000000000E+00 0. -1.
         21    1    1    2  503  504 -0.19105483201E+02 -0.63280461474E+01 -0.21837682701E-01  0.20126205138E+02  0.00000000000E+00 0.  1.
         21    1    1    2  504  501  0.19105483201E+02  0.63280461474E+01 -0.29203460597E+02  0.35466967268E+02  0.00000000000E+00 0.  1.
<mgrwt>
<rscale>  2 0.20126193E+02</rscale>
<asrwt>0</asrwt>
<pdfrwt beam="1">  1       21 0.20282980E-02 0.20126193E+02</pdfrwt>
<pdfrwt beam="2">  1       21 0.65244977E-02 0.20126193E+02</pdfrwt>
<totfact> 0.13159429E+08</totfact>
</mgrwt>
</event>
<event>
 4    1  0.9374408E+003  0.3530841E+02  0.7546771E-02  0.1545879E+00
         21   -1    0    0  502  501  0.00000000000E+00  0.00000000000E+00  0.15691179295E+02  0.15691179295E+02  0.00000000000E+00 0.  1.
         21   -1    0    0  504  502 -0.00000000000E+00 -0.00000000000E+00 -0.16045941573E+03  0.16045941573E+03  0.00000000000E+00 0.  1.
         21    1    1    2  503  501  0.30616806740E+02  0.17586776370E+02 -0.98040607303E+01  0.36644278747E+02  0.00000000000E+00 0.  1.
         21    1    1    2  504  503 -0.30616806740E+02 -0.17586776370E+02 -0.13496417570E+03  0.13950631628E+03  0.00000000000E+00 0.  1.
<mgrwt>
<rscale>  2 0.35308406E+02</rscale>
<asrwt>0</asrwt>
<pdfrwt beam="1">  1       21 0.24140277E-02 0.35308406E+02</pdfrwt>
<pdfrwt beam="2">  1       21 0.24686062E-01 0.35308406E+02</pdfrwt>
<totfact> 0.11952007E+07</totfact>
</mgrwt>
</event>
<event>
 4    1  0.9374408E+003  0.2434524E+02  0.7546771E-02  0.1670589E+00
         21   -1    0    0  502  501  0.00000000000E+00  0.00000000000E+00  0.19047276397E+02  0.19047276397E+02  0.00000000000E+00 0. -1.
         21   -1    0    0  503  502 -0.00000000000E+00 -0.00000000000E+00 -0.36966653340E+02  0.36966653340E+02  0.00000000000E+00 0. -1.
         21    1    1    2  503  504  0.21812246570E+01  0.24247325974E+02 -0.20100913510E+02  0.31571146350E+02  0.00000000000E+00 0.  1.
         21    1    1    2  504  501 -0.21812246570E+01 -0.24247325974E+02  0.21815365669E+01  0.24442783387E+02  0.00000000000E+00 0.  1.
<mgrwt>
<rscale>  2 0.24345237E+02</rscale>
<asrwt>0</asrwt>
<pdfrwt beam="1">  1       21 0.29303502E-02 0.24345237E+02</pdfrwt>
<pdfrwt beam="2">  1       21 0.56871774E-02 0.24345237E+02</pdfrwt>
<totfact> 0.98375715E+07</totfact>
</mgrwt>
</event>
<event>
 4    1  0.9374408E+003  0.2441342E+02  0.7546771E-02  0.1669573E+00
         21   -1    0    0  503  501  0.00000000000E+00  0.00000000000E+00  0.40344971002E+01  0.40344971002E+01  0.00000000000E+00 0.  1.
         21   -1    0    0  501  502 -0.00000000000E+00 -0.00000000000E+00 -0.17180356728E+03  0.17180356728E+03  0.00000000000E+00 0.  1.
         21    1    1    2  503  504  0.24395898861E+02  0.92479627625E+00 -0.11679541966E+03  0.11931967643E+03  0.00000000000E+00 0. -1.
         21    1    1    2  504  502 -0.24395898861E+02 -0.92479627625E+00 -0.50973650521E+02  0.56518387953E+02  0.00000000000E+00 0. -1.
<mgrwt>
<rscale>  2 0.24413421E+02</rscale>
<asrwt>0</asrwt>
<pdfrwt beam="1">  1       21 0.62069197E-03 0.24413421E+02</pdfrwt>
<pdfrwt beam="2">  1       21 0.26431313E-01 0.24413421E+02</pdfrwt>
<totfact> 0.77849420E+07</totfact>
</mgrwt>
</event>
<event>
 4    1  0.9374408E+003  0.2114853E+02  0.7546771E-02  0.1723408E+00
         21   -1    0    0  504  501  0.00000000000E+00  0.00000000000E+00  0.66479952060E+01  0.66479952060E+01  0.00000000000E+00 0.  1.
         21   -1    0    0  501  502 -0.00000000000E+00 -0.00000000000E+00 -0.78593467338E+02  0.78593467338E+02  0.00000000000E+00 0.  1.
         21    1    1    2  503  502  0.18627232286E+02  0.10014313178E+02 -0.19800345310E+02  0.28970915165E+02  0.00000000000E+00 0.  1.
         21    1    1    2  504  503 -0.18627232286E+02 -0.10014313178E+02 -0.52145126822E+02  0.56270547379E+02  0.00000000000E+00 0.  1.
<mgrwt>
<rscale>  2 0.21148528E+02</rscale>
<asrwt>0</asrwt>
<pdfrwt beam="1">  1       21 0.10227685E-02 0.21148528E+02</pdfrwt>
<pdfrwt beam="2">  1       21 0.12091302E-01 0.21148528E+02</pdfrwt>
<totfact> 0.13720712E+08</totfact>
</mgrwt>
</event>
<event>
 4    1  0.9374408E+003  0.2604912E+02  0.7546771E-02  0.1646375E+00
         21   -1    0    0  502  501  0.00000000000E+00  0.00000000000E+00  0.17104921405E+03  0.17104921405E+03  0.00000000000E+00 0. -1.
         21   -1    0    0  504  502 -0.00000000000E+00 -0.00000000000E+00 -0.10121667173E+02  0.10121667173E+02  0.00000000000E+00 0. -1.
         21    1    1    2  503  501  0.24284181734E+02 -0.94252390291E+01  0.15110101924E+03  0.15332995346E+03  0.00000000000E+00 0. -1.
         21    1    1    2  504  503 -0.24284181734E+02  0.94252390291E+01  0.98265276380E+01  0.27840927762E+02  0.00000000000E+00 0. -1.
<mgrwt>
<rscale>  2 0.26049119E+02</rscale>
<asrwt>0</asrwt>
<pdfrwt beam="1">  1       21 0.26315262E-01 0.26049119E+02</pdfrwt>
<pdfrwt beam="2">  1       21 0.15571797E-02 0.26049119E+02</pdfrwt>
<totfact> 0.19913310E+07</totfact>
</mgrwt>
</event>
<event>
 4    1  0.9374408E+003  0.2482207E+02  0.7546771E-02  0.1663571E+00
         21   -1    0    0  503  501  0.00000000000E+00  0.00000000000E+00  0.61681460501E+02  0.61681460501E+02  0.00000000000E+00 0. -1.
         21   -1    0    0  501  502 -0.00000000000E+00 -0.00000000000E+00 -0.16646114569E+02  0.16646114569E+02  0.00000000000E+00 0. -1.
         21    1    1    2  503  504 -0.12125263995E+02  0.21659016531E+02  0.47284583508E+02  0.53403809430E+02  0.00000000000E+00 0.  1.
         21    1    1    2  504  502  0.12125263995E+02 -0.21659016531E+02 -0.22492375762E+01  0.24923765641E+02  0.00000000000E+00 0.  1.
<mgrwt>
<rscale>  2 0.24822067E+02</rscale>
<asrwt>0</asrwt>
<pdfrwt beam="1">  1       21 0.94894553E-02 0.24822067E+02</pdfrwt>
<pdfrwt beam="2">  1       21 0.25609407E-02 0.24822067E+02</pdfrwt>
<totfact> 0.52960444E+07</totfact>
</mgrwt>
</event>
<event>
 4    1  0.9374408E+003  0.2038177E+02  0.7546771E-02  0.1737841E+00
         21   -1    0    0  502  501  0.00000000000E+00  0.00000000000E+00  0.16186467234E+03  0.16186467234E+03  0.00000000000E+00 0.  1.
         21   -1    0    0  503  502 -0.00000000000E+00 -0.00000000000E+00 -0.28147131116E+01  0.28147131116E+01  0.00000000000E+00 0.  1.
         21    1    1    2  503  504  0.19505613953E+02  0.59116355074E+01  0.10397924596E+03  0.10595801055E+03  0.00000000000E+00 0. -1.
         21    1    1    2  504  501 -0.19505613953E+02 -0.59116355074E+01  0.55070713277E+02  0.58721374906E+02  0.00000000000E+00 0. -1.
<mgrwt>
<rscale>  2 0.20381767E+02</rscale>
<asrwt>0</asrwt>
<pdfrwt beam="1">  1       21 0.24902250E-01 0.20381767E+02</pdfrwt>
<pdfrwt beam="2">  1       21 0.43303291E-03 0.20381767E+02</pdfrwt>
<totfact> 0.14007876E+08</totfact>
</mgrwt>
</event>
<event>
 4    1  0.9374408E+003  0.2596588E+02  0.7546771E-02  0.1647504E+00
         21   -1    0    0  504  501  0.00000000000E+00  0.00000000000E+00  0.36303212026E+03  0.36303212026E+03  0.00000000000E+00 0.  1.
         21   -1    0    0  501  502 -0.00000000000E+00 -0.00000000000E+00 -0.30069969549E+01  0.30069969549E+01  0.00000000000E+00 0.  1.
         21    1    1    2  503  502  0.18097082085E+01  0.25902735829E+02  0.66840361568E+02  0.71706768870E+02  0.00000000000E+00 0. -1.
         21    1    1    2  504  503 -0.18097082085E+01 -0.25902735829E+02  0.29318476173E+03  0.29433234834E+03  0.00000000000E+00 0. -1.
<mgrwt>
<rscale>  2 0.25965877E+02</rscale>
<asrwt>0</asrwt>
<pdfrwt beam="1">  1       21 0.55851061E-01 0.25965877E+02</pdfrwt>
<pdfrwt beam="2">  1       21 0.46261520E-03 0.25965877E+02</pdfrwt>
<totfact> 0.29775038E+07</totfact>
</mgrwt>
</event>
<event>
 4    1  0.9374408E+003  0.2118320E+02  0.7546771E-02  0.1722773E+00
         21   -1    0    0  504  501  0.00000000000E+00  0.00000000000E+00  0.13189071705E+02  0.13189071705E+02  0.00000000000E+00 0. -1.
         21   -1    0    0  501  502 -0.00000000000E+00 -0.00000000000E+00 -0.58380209373E+02  0.58380209373E+02  0.00000000000E+00 0. -1.
         21    1    1    2  503  502 -0.75730347451E+01 -0.19783258253E+02  0.51869410848E+00  0.21189554170E+02  0.00000000000E+00 0.  1.
         21    1    1    2  504  503  0.75730347451E+01  0.19783258253E+02 -0.45709831776E+02  0.50379726908E+02  0.00000000000E+00 0.  1.
<mgrwt>
<rscale>  2 0.21183205E+02</rscale>
<asrwt>0</asrwt>
<pdfrwt beam="1">  1       21 0.20290879E-02 0.21183205E+02</pdfrwt>
<pdfrwt beam="2">  1       21 0.89815707E-02 0.21183205E+02</pdfrwt>
<totfact> 0.79549091E+07</totfact>
</mgrwt>
</event>
<event>
 4    1  0.9374408E+003  0.3404973E+02  0.7546771E-02  0.1557205E+00
         21   -1    0    0  502  501  0.00000000000E+00  0.00000000000E+00  0.26497844854E+02  0.26497844854E+02  0.00000000000E+00 0. -1.
         21   -1    0    0  504  502 -0.00000000000E+00 -0.00000000000E+00 -0.10478177276E+03  0.10478177276E+03  0.00000000000E+00 0. -1.
         21    1    1    2  503  501  0.31179529228E+02  0.13682884309E+02 -0.89236286828E+02  0.95511775467E+02  0.00000000000E+00 0.  1.
         21    1    1    2  504  503 -0.31179529228E+02 -0.13682884309E+02  0.10952358922E+02  0.35767842147E+02  0.00000000000E+00 0.  1.
<mgrwt>
<rscale>  2 0.34049734E+02</rscale>
<asrwt>0</asrwt>
<pdfrwt beam="1">  1       21 0.40765916E-02 0.34049734E+02</pdfrwt>
<pdfrwt beam="2">  1       21 0.16120272E-01 0.34049734E+02</pdfrwt>
<totfact> 0.11040920E+07</totfact>
</mgrwt>
</event>
<event>
 4    1  0.9374408E+003  0.2235930E+02  0.7546771E-02  0.1702111E+00
         21   -1    0    0  502  501  0.00000000000E+00  0.00000000000E+00  0.52568907228E+03  0.52568907228E+03  0.00000000000E+00 0.  1.
         21   -1    0    0  504  502 -0.00000000000E+00 -0.00000000000E+00 -0.12990301814E+01  0.12990301814E+01  0.00000000000E+00 0.  1.
         21    1    1    2  503  501 -0.10791087597E+02 -0.19582922701E+02  0.12581209496E+03  0.12778349530E+03  0.00000000000E+00 0.  1.
         21    1    1    2  504  503  0.10791087597E+02  0.19582922701E+02  0.39857794714E+03  0.39920460716E+03  0.00000000000E+00 0.  1.
<mgrwt>
<rscale>  2 0.22359303E+02</rscale>
<asrwt>0</asrwt>
<pdfrwt beam="1">  1       21 0.80875071E-01 0.22359303E+02</pdfrwt>
<pdfrwt beam="2">  1       21 0.19985122E-03 0.22359303E+02</pdfrwt>
<totfact> 0.46131862E+07</totfact>
</mgrwt>
</event>
<event>
 4    1  0.9374408E+003  0.2394230E+02  0.7546771E-02  0.1676676E+00
         21   -1    0    0  502  501  0.00000000000E+00  0.00000000000E+00  0.63967525045E+00  0.63967525045E+00  0.00000000000E+00 0. -1.
         21   -1    0    0  503  502 -0.00000000000E+00 -0.00000000000E+00 -0.13778496451E+04  0.13778496451E+04  0.00000000000E+00 0. -1.
         21    1    1    2  503  504  0.22976685165E+02  0.67309658703E+01 -0.28106669391E+03  0.28208459793E+03  0.00000000000E+00 0.  1.
         21    1    1    2  504  501 -0.22976685165E+02 -0.67309658703E+01 -0.10961432759E+04  0.10964047224E+04  0.00000000000E+00 0.  1.
<mgrwt>
<rscale>  2 0.23942305E+02</rscale>
<asrwt>0</asrwt>
<pdfrwt beam="1">  1       21 0.98411768E-04 0.23942305E+02</pdfrwt>
<pdfrwt beam="2">  1       21 0.21197646E+00 0.23942305E+02</pdfrwt>
<totfact> 0.13732886E+07</totfact>
</mgrwt>
</event>
<event>
 4    1  0.9374408E+003  0.2396592E+02  0.7546771E-02  0.1676315E+00
         21   -1    0    0  504  501  0.00000000000E+00  0.00000000000E+00  0.12594726097E+03  0.12594726097E+03  0.00000000000E+00 0.  1.
         21   -1    0    0  501  502 -0.00000000000E+00 -0.00000000000E+00 -0.19098857082E+02  0.19098857082E+02  0.00000000000E+00 0.  1.
         21    1    1    2  503  502 -0.15903360899E+02  0.17928982395E+02 -0.98507944080E+01  0.25911453993E+02  0.00000000000E+00 0.  1.
         21    1    1    2  504  503  0.15903360899E+02 -0.17928982395E+02  0.11669919829E+03  0.11913466406E+03  0.00000000000E+00 0.  1.
<mgrwt>
<rscale>  2 0.23965920E+02</rscale>
<asrwt>0</asrwt>
<pdfrwt beam="1">  1       21 0.19376501E-01 0.23965920E+02</pdfrwt>
<pdfrwt beam="2">  1       21 0.29382858E-02 0.23965920E+02</pdfrwt>
<totfact> 0.12652463E+07</totfact>
</mgrwt>
</event>
<event>
 4    1  0.9374408E+003  0.2393690E+02  0.7546771E-02  0.1676758E+00
         21   -1    0    0  504  501  0.00000000000E+00  0.00000000000E+00  0.39196544865E+02  0.39196544865E+02  0.00000000000E+00 0.  1.
         21   -1    0    0  501  502 -0.00000000000E+00 -0.00000000000E+00 -0.16881428743E+02  0.16881428743E+02  0.00000000000E+00 0.  1.
         21    1    1    2  503  502 -0.12070363672E+02 -0.20670787674E+02  0.21424497697E+02  0.32124511573E+02  0.00000000000E+00 0.  1.
         21    1    1    2  504  503  0.12070363672E+02  0.20670787674E+02  0.89061842468E+00  0.23953462034E+02  0.00000000000E+00 0.  1.
<mgrwt>
<rscale>  2 0.23936899E+02</rscale>
<asrwt>0</asrwt>
<pdfrwt beam="1">  1       21 0.60302376E-02 0.23936899E+02</pdfrwt>
<pdfrwt beam="2">  1       21 0.25971429E-02 0.23936899E+02</pdfrwt>
<totfact> 0.10750100E+08</totfact>
</mgrwt>
</event>
<event>
 4    1  0.9374408E+003  0.2293094E+02  0.7546771E-02  0.1692632E+00
         21   -1    0    0  504  501  0.00000000000E+00  0.00000000000E+00  0.14214151783E+02  0.14214151783E+02  0.00000000000E+00 0. -1.
         21   -1    0    0  501  502 -0.00000000000E+00 -0.00000000000E+00 -0.58056859550E+02  0.58056859550E+02  0.00000000000E+00 0. -1.
         21    1    1    2  503  502 -0.38682088509E+01  0.22602320801E+02 -0.43687100295E+02  0.49339544764E+02  0.00000000000E+00 0. -1.
         21    1    1    2  504  503  0.38682088509E+01 -0.22602320801E+02 -0.15560747144E+00  0.22931466569E+02  0.00000000000E+00 0. -1.
<mgrwt>
<rscale>  2 0.22930939E+02</rscale>
<asrwt>0</asrwt>
<pdfrwt beam="1">  1       21 0.21867926E-02 0.22930939E+02</pdfrwt>
<pdfrwt beam="2">  1       21 0.89318245E-02 0.22930939E+02</pdfrwt>
<totfact> 0.73160660E+07</totfact>
</mgrwt>
</event>
<event>
 4    1  0.9374408E+003  0.2556915E+02  0.7546771E-02  0.1652959E+00
         21   -1    0    0  502  501  0.00000000000E+00  0.00000000000E+00  0.40009344827E+02  0.40009344827E+02  0.00000000000E+00 0.  1.
         21   -1    0    0  503  502 -0.00000000000E+00 -0.00000000000E+00 -0.24535968670E+02  0.24535968670E+02  0.00000000000E+00 0.  1.
         21    1    1    2  503  504  0.25134041655E+02  0.46969781612E+01 -0.10914825536E+02  0.27801350151E+02  0.00000000000E+00 0. -1.
         21    1    1    2  504  501 -0.25134041655E+02 -0.46969781612E+01  0.26388201693E+02  0.36743963346E+02  0.00000000000E+00 0. -1.
<mgrwt>
<rscale>  2 0.25569154E+02</rscale>
<asrwt>0</asrwt>
<pdfrwt beam="1">  1       21 0.61552838E-02 0.25569154E+02</pdfrwt>
<pdfrwt beam="2">  1       21 0.37747644E-02 0.25569154E+02</pdfrwt>
<totfact> 0.58957426E+07</totfact>
</mgrwt>
</event>
<event>
 4    1  0.9374408E+003  0.2322292E+02  0.7546771E-02  0.1687922E+00
         21   -1    0    0  503  501  0.00000000000E+00  0.00000000000E+00  0.65407101786E+03  0.65407101786E+03  0.00000000000E+00 0. -1.
         21   -1    0    0  501  502 -0.00000000000E+00 -0.00000000000E+00 -0.19431480107E+01  0.19431480107E+01  0.00000000000E+00 0. -1.
         21    1    1    2  503  504 -0.19663792707E+02 -0.12354726821E+02  0.77195199505E+02  0.80612671740E+02  0.00000000000E+00 0.  1.
         21    1    1    2  504  502  0.19663792707E+02  0.12354726821E+02  0.57493267035E+03  0.57540149413E+03  0.00000000000E+00 0.  1.
<mgrwt>
<rscale>  2 0.23222920E+02</rscale>
<asrwt>0</asrwt>
<pdfrwt beam="1">  1       21 0.10062613E+00 0.23222920E+02</pdfrwt>
<pdfrwt beam="2">  1       21 0.29894637E-03 0.23222920E+02</pdfrwt>
<totfact> 0.16234672E+07</totfact>
</mgrwt>
</event>
<event>
 4    1  0.9374408E+003  0.2158191E+02  0.7546771E-02  0.1715585E+00
         21   -1    0    0  502  501  0.00000000000E+00  0.00000000000E+00  0.98803133778E+01  0.98803133778E+01  0.00000000000E+00 0.  1.
         21   -1    0    0  504  502 -0.00000000000E+00 -0.00000000000E+00 -0.59951298710E+02  0.59951298710E+02  0.00000000000E+00 0.  1.
         21    1    1    2  503  501  0.14970501109E+02  0.15545511816E+02 -0.41174750157E+02  0.46488051063E+02  0.00000000000E+00 0. -1.
         21    1    1    2  504  503 -0.14970501109E+02 -0.15545511816E+02 -0.88962351748E+01  0.23343561025E+02  0.00000000000E+00 0. -1.
<mgrwt>
<rscale>  2 0.21581910E+02</rscale>
<asrwt>0</asrwt>
<pdfrwt beam="1">  1       21 0.15200482E-02 0.21581910E+02</pdfrwt>
<pdfrwt beam="2">  1       21 0.92232769E-02 0.21581910E+02</pdfrwt>
<totfact> 0.11890260E+08</totfact>
</mgrwt>
</event>
<event>
 4    1  0.9374408E+003  0.2016656E+02  0.7546771E-02  0.1742036E+00
         21   -1    0    0  503  501  0.00000000000E+00  0.00000000000E+00  0.39462073184E+01  0.39462073184E+01  0.00000000000E+00 0. -1.
         21   -1    0    0  501  502 -0.00000000000E+00 -0.00000000000E+00 -0.28491009523E+03  0.28491009523E+03  0.00000000000E+00 0. -1.
         21    1    1    2  503  504  0.82448681432E+01 -0.18404138518E+02 -0.25095044568E+02  0.32193965695E+02  0.00000000000E+00 0.  1.
         21    1    1    2  504  502 -0.82448681432E+01  0.18404138518E+02 -0.25586884335E+03  0.25666233686E+03  0.00000000000E+00 0.  1.
<mgrwt>
<rscale>  2 0.20166561E+02</rscale>
<asrwt>0</asrwt>
<pdfrwt beam="1">  1       21 0.60710852E-03 0.20166561E+02</pdfrwt>
<pdfrwt beam="2">  1       21 0.43832344E-01 0.20166561E+02</pdfrwt>
<totfact> 0.30192483E+07</totfact>
</mgrwt>
</event>
<event>
 4    1  0.9374408E+003  0.2385006E+02  0.7546771E-02  0.1678090E+00
         21   -1    0    0  502  501  0.00000000000E+00  0.00000000000E+00  0.36057581892E+01  0.36057581892E+01  0.00000000000E+00 0. -1.
         21   -1    0    0  503  502 -0.00000000000E+00 -0.00000000000E+00 -0.32634597921E+03  0.32634597921E+03  0.00000000000E+00 0. -1.
         21    1    1    2  503  504 -0.21631232264E+02  0.10045650368E+02 -0.42793551321E+02  0.48990951565E+02  0.00000000000E+00 0.  1.
         21    1    1    2  504  501  0.21631232264E+02 -0.10045650368E+02 -0.27994666970E+03  0.28096078583E+03  0.00000000000E+00 0.  1.
<mgrwt>
<rscale>  2 0.23850059E+02</rscale>
<asrwt>0</asrwt>
<pdfrwt beam="1">  1       21 0.55473195E-03 0.23850059E+02</pdfrwt>
<pdfrwt beam="2">  1       21 0.50207081E-01 0.23850059E+02</pdfrwt>
<totfact> 0.27585525E+07</totfact>
</mgrwt>
</event>
<event>
 4    1  0.9374408E+003  0.2432955E+02  0.7546771E-02  0.1670823E+00
         21   -1    0    0  504  501  0.00000000000E+00  0.00000000000E+00  0.50057382509E+02  0.50057382509E+02  0.00000000000E+00 0. -1.
         21   -1    0    0  501  502 -0.00000000000E+00 -0.00000000000E+00 -0.18725682248E+02  0.18725682248E+02  0.00000000000E+00 0. -1.
         21    1    1    2  503  502  0.21669433282E+02  0.11061760690E+02  0.36543411103E+02  0.43901569259E+02  0.00000000000E+00 0. -1.
         21    1    1    2  504  503 -0.21669433282E+02 -0.11061760690E+02 -0.52117108417E+01  0.24881495498E+02  0.00000000000E+00 0. -1.
<mgrwt>
<rscale>  2 0.24329548E+02</rscale>
<asrwt>0</asrwt>
<pdfrwt beam="1">  1       21 0.77011357E-02 0.24329548E+02</pdfrwt>
<pdfrwt beam="2">  1       21 0.28808742E-02 0.24329548E+02</pdfrwt>
<totfact> 0.61837977E+07</totfact>
</mgrwt>
</event>
<event>
 4    1  0.9374408E+003  0.2235890E+02  0.7546771E-02  0.1702118E+00
         21   -1    0    0  502  501  0.00000000000E+00  0.00000000000E+00  0.19770281006E+02  0.19770281006E+02  0.00000000000E+00 0. -1.
         21   -1    0    0  504  502 -0.00000000000E+00 -0.00000000000E+00 -0.45332319711E+02  0.45332319711E+02  0.00000000000E+00 0. -1.
         21    1    1    2  503  501  0.33728369564E+01  0.22103043318E+02  0.88649301663E+01  0.24052183682E+02  0.00000000000E+00 0. -1.
         21    1    1    2  504  503 -0.33728369564E+01 -0.22103043318E+02 -0.34426968871E+02  0.41050417034E+02  0.00000000000E+00 0. -1.
<mgrwt>
<rscale>  2 0.22358903E+02</rscale>
<asrwt>0</asrwt>
<pdfrwt beam="1">  1       21 0.30415817E-02 0.22358903E+02</pdfrwt>
<pdfrwt beam="2">  1       21 0.69742030E-02 0.22358903E+02</pdfrwt>
<totfact> 0.65255036E+07</totfact>
</mgrwt>
</event>
<event>
 4    1  0.9374408E+003  0.2590394E+02  0.7546771E-02  0.1648348E+00
         21   -1    0    0  502  501  0.00000000000E+00  0.00000000000E+00  0.62769353576E+01  0.62769353576E+01  0.00000000000E+00 0.  1.
         21   -1    0    0  504  502 -0.00000000000E+00 -0.00000000000E+00 -0.14484084015E+03  0.14484084015E+03  0.00000000000E+00 0.  1.
         21    1    1    2  503  501  0.16230049277E+02  0.20189097364E+02 -0.30611023056E+02  0.40100484841E+02  0.00000000000E+00 0.  1.
         21    1    1    2  504  503 -0.16230049277E+02 -0.20189097364E+02 -0.10795288174E+03  0.11101729067E+03  0.00000000000E+00 0.  1.
<mgrwt>
<rscale>  2 0.25903941E+02</rscale>
<asrwt>0</asrwt>
<pdfrwt beam="1">  1       21 0.96568225E-03 0.25903941E+02</pdfrwt>
<pdfrwt beam="2">  1       21 0.22283209E-01 0.25903941E+02</pdfrwt>
<totfact> 0.55274681E+07</totfact>
</mgrwt>
</event>
<event>
 4    1  0.9374408E+003  0.2077190E+02  0.7546771E-02  0.1730400E+00
         21   -1    0    0  502  501  0.00000000000E+00  0.00000000000E+00  0.37714109318E+03  0.37714109318E+03  0.00000000000E+00 0.  1.
         21   -1    0    0  504  502 -0.00000000000E+00 -0.00000000000E+00 -0.13688291748E+01  0.13688291748E+01  0.00000000000E+00 0.  1.
         21    1    1    2  503  501 -0.49463271966E+01  0.20174379891E+02  0.26457666309E+03  0.26539081071E+03  0.00000000000E+00 0.  1.
         21    1    1    2  504  503  0.49463271966E+01 -0.20174379891E+02  0.11119560091E+03  0.11311911164E+03  0.00000000000E+00 0.  1.
<mgrwt>
<rscale>  2 0.20771898E+02</rscale>
<asrwt>0</asrwt>
<pdfrwt beam="1">  1       21 0.58021624E-01 0.20771898E+02</pdfrwt>
<pdfrwt beam="2">  1       21 0.21058940E-03 0.20771898E+02</pdfrwt>
<totfact> 0.82671624E+07</totfact>
</mgrwt>
</event>
<event>
 4    1  0.9374408E+003  0.2562381E+02  0.7546771E-02  0.1652200E+00
         21   -1    0    0  502  501  0.00000000000E+00  0.00000000000E+00  0.20591905319E+02  0.20591905319E+02  0.00000000000E+00 0.  1.
         21   -1    0    0  503  502 -0.00000000000E+00 -0.00000000000E+00 -0.38841230921E+02  0.38841230921E+02  0.00000000000E+00 0.  1.
         21    1    1    2  503  504  0.61634286067E+01 -0.24871503253E+02  0.34509486885E+01  0.25855145970E+02  0.00000000000E+00 0. -1.
         21    1    1    2  504  501 -0.61634286067E+01  0.24871503253E+02 -0.21700274290E+02  0.33577990270E+02  0.00000000000E+00 0. -1.
<mgrwt>
<rscale>  2 0.25623808E+02</rscale>
<asrwt>0</asrwt>
<pdfrwt beam="1">  1       21 0.31679855E-02 0.25623808E+02</pdfrwt>
<pdfrwt beam="2">  1       21 0.59755739E-02 0.25623808E+02</pdfrwt>
<totfact> 0.81512659E+07</totfact>
</mgrwt>
</event>
<event>
 4    1  0.9374408E+003  0.2777756E+02  0.7546771E-02  0.1624039E+00
         21   -1    0    0  504  501  0.00000000000E+00  0.00000000000E+00  0.11189691744E+02  0.11189691744E+02  0.00000000000E+00 0. -1.
         21   -1    0    0  501  502 -0.00000000000E+00 -0.00000000000E+00 -0.16176681981E+03  0.16176681981E+03  0.00000000000E+00 0. -1.
         21    1    1    2  503  502  0.24078149769E+02 -0.13850473932E+02 -0.14079172007E+03  0.14350575377E+03  0.00000000000E+00 0.  1.
         21    1    1    2  504  503 -0.24078149769E+02  0.13850473932E+02 -0.97854079945E+01  0.29450757784E+02  0.00000000000E+00 0.  1.
<mgrwt>
<rscale>  2 0.27777562E+02</rscale>
<asrwt>0</asrwt>
<pdfrwt beam="1">  1       21 0.17214910E-02 0.27777562E+02</pdfrwt>
<pdfrwt beam="2">  1       21 0.24887204E-01 0.27777562E+02</pdfrwt>
<totfact> 0.19113988E+07</totfact>
</mgrwt>
</event>
<event>
 4    1  0.9374408E+003  0.3114904E+02  0.7546771E-02  0.1585724E+00
         21   -1    0    0  502  501  0.00000000000E+00  0.00000000000E+00  0.80206523072E+03  0.80206523072E+03  0.00000000000E+00 0. -1.
         21   -1    0    0  504  502 -0.00000000000E+00 -0.00000000000E+00 -0.27658280047E+01  0.27658280047E+01  0.00000000000E+00 0. -1.
         21    1    1    2  503  501 -0.12101409149E+01  0.31125524715E+02  0.70149473688E+03  0.70218596440E+03  0.00000000000E+00 0.  1.
         21    1    1    2  504  503  0.12101409149E+01 -0.31125524715E+02  0.97804665835E+02  0.10264509432E+03  0.00000000000E+00 0.  1.
<mgrwt>
<rscale>  2 0.31149041E+02</rscale>
<asrwt>0</asrwt>
<pdfrwt beam="1">  1       21 0.12339447E+00 0.31149041E+02</pdfrwt>
<pdfrwt beam="2">  1       21 0.42551264E-03 0.31149041E+02</pdfrwt>
<totfact> 0.63690595E+06</totfact>
</mgrwt>
</event>
<event>
 4    1  0.9374408E+003  0.2712224E+02  0.7546771E-02  0.1632266E+00
         21   -1    0    0  503  501  0.00000000000E+00  0.00000000000E+00  0.82762882222E+02  0.82762882222E+02  0.00000000000E+00 0. -1.
         21   -1    0    0  501  502 -0.00000000000E+00 -0.00000000000E+00 -0.15955287674E+02  0.15955287674E+02  0.00000000000E+00 0. -1.
         21    1    1    2  503  504 -0.26927385346E+02  0.32452824348E+01  0.66253689350E+02  0.71590273726E+02  0.00000000000E+00 0.  1.
         21    1    1    2  504  502  0.26927385346E+02 -0.32452824348E+01  0.55390519847E+00  0.27127896170E+02  0.00000000000E+00 0.  1.
<mgrwt>
<rscale>  2 0.27122241E+02</rscale>
<asrwt>0</asrwt>
<pdfrwt beam="1">  1       21 0.12732751E-01 0.27122241E+02</pdfrwt>
<pdfrwt beam="2">  1       21 0.24546597E-02 0.27122241E+02</pdfrwt>
<totfact> 0.35304124E+07</totfact>
</mgrwt>
</event>
<event>
 4    1  0.9374408E+003  0.3324278E+02  0.7546771E-02  0.1564783E+00
         21   -1    0    0  504  501  0.00000000000E+00  0.00000000000E+00  0.25533672747E+03  0.25533672747E+03  0.00000000000E+00 0.  1.
         21   -1    0    0  501  502 -0.00000000000E+00 -0.00000000000E+00 -0.74885751404E+01  0.74885751404E+01  0.00000000000E+00 0.  1.
         21    1    1    2  503  502  0.29539320522E+02  0.15248314873E+02  0.38550274296E+02  0.50903891911E+02  0.00000000000E+00 0.  1.
         21    1    1    2  504  503 -0.29539320522E+02 -0.15248314873E+02  0.20929787803E+03  0.21192141070E+03  0.00000000000E+00 0.  1.
<mgrwt>
<rscale>  2 0.33242782E+02</rscale>
<asrwt>0</asrwt>
<pdfrwt beam="1">  1       21 0.39282567E-01 0.33242782E+02</pdfrwt>
<pdfrwt beam="2">  1       21 0.11520887E-02 0.33242782E+02</pdfrwt>
<totfact> 0.15682191E+07</totfact>
</mgrwt>
</event>
<event>
 4    1  0.9374408E+003  0.2133154E+02  0.7546771E-02  0.1720076E+00
         21   -1    0    0  503  501  0.00000000000E+00  0.00000000000E+00  0.61328683377E+01  0.61328683377E+01  0.00000000000E+00 0. -1.
         21   -1    0    0  501  502 -0.00000000000E+00 -0.00000000000E+00 -0.86560972749E+02  0.86560972749E+02  0.00000000000E+00 0. -1.
         21    1    1    2  503  504  0.58532177379E+01 -0.20512788145E+02 -0.57730879108E+02  0.61545828761E+02  0.00000000000E+00 0. -1.
         21    1    1    2  504  502 -0.58532177379E+01  0.20512788145E+02 -0.22697225304E+02  0.31148012326E+02  0.00000000000E+00 0. -1.
<mgrwt>
<rscale>  2 0.21331541E+02</rscale>
<asrwt>0</asrwt>
<pdfrwt beam="1">  1       21 0.94351831E-03 0.21331541E+02</pdfrwt>
<pdfrwt beam="2">  1       21 0.13317071E-01 0.21331541E+02</pdfrwt>
<totfact> 0.13202809E+08</totfact>
</mgrwt>
</event>
<event>
 4    1  0.9374408E+003  0.2164682E+02  0.7546771E-02  0.1714433E+00
         21   -1    0    0  502  501  0.00000000000E+00  0.00000000000E+00  0.92363447920E+03  0.92363447920E+03  0.00000000000E+00 0. -1.
         21   -1    0    0  504  502 -0.00000000000E+00 -0.00000000000E+00 -0.82974863702E+00  0.82974863702E+00  0.00000000000E+00 0. -1.
         21    1    1    2  503  501 -0.21566651237E+02 -0.18612304549E+01  0.74953934042E+03  0.74985185701E+03  0.00000000000E+00 0.  1.
         21    1    1    2  504  503  0.21566651237E+02  0.18612304549E+01  0.17326539014E+03  0.17461237083E+03  0.00000000000E+00 0.  1.
<mgrwt>
<rscale>  2 0.21646816E+02</rscale>
<asrwt>0</asrwt>
<pdfrwt beam="1">  1       21 0.14209679E+00 0.21646816E+02</pdfrwt>
<pdfrwt beam="2">  1       21 0.12765438E-03 0.21646816E+02</pdfrwt>
<totfact> 0.25050474E+07</totfact>
</mgrwt>
</event>
<event>
 4    1  0.9374408E+003  0.3337451E+02  0.7546771E-02  0.1563528E+00
         21   -1    0    0  502  501  0.00000000000E+00  0.00000000000E+00  0.14046881775E+03  0.14046881775E+03  0.00000000000E+00 0. -1.
         21   -1    0    0  503  502 -0.00000000000E+00 -0.00000000000E+00 -0.40572003311E+02  0.40572003311E+02  0.00000000000E+00 0. -1.
         21    1    1    2  503  504 -0.31974381910E+02  0.95653975770E+01 -0.31245702244E+02  0.45718178420E+02  0.00000000000E+00 0.  1.
         21    1    1    2  504  501  0.31974381910E+02 -0.95653975770E+01  0.13114251668E+03  0.13532264264E+03  0.00000000000E+00 0.  1.
<mgrwt>
<rscale>  2 0.33374510E+02</rscale>
<asrwt>0</asrwt>
<pdfrwt beam="1">  1       21 0.21610587E-01 0.33374510E+02</pdfrwt>
<pdfrwt beam="2">  1       21 0.62418467E-02 0.33374510E+02</pdfrwt>
<totfact> 0.33013616E+06</totfact>
</mgrwt>
</event>
<event>
 4    1  0.9374408E+003  0.2789481E+02  0.7546771E-02  0.1622597E+00
         21   -1    0    0  502  501  0.00000000000E+00  0.00000000000E+00  0.16732059138E+02  0.16732059138E+02  0.00000000000E+00 0. -1.
         21   -1    0    0  504  502 -0.00000000000E+00 -0.00000000000E+00 -0.49708207537E+02  0.49708207537E+02  0.00000000000E+00 0. -1.
         21    1    1    2  503  501 -0.24380808267E+02 -0.13553471010E+02 -0.24921347085E+02  0.37405800736E+02  0.00000000000E+00 0. -1.
         21    1    1    2  504  503  0.24380808267E+02  0.13553471010E+02 -0.80548013136E+01  0.29034465939E+02  0.00000000000E+00 0. -1.
<mgrwt>
<rscale>  2 0.27894809E+02</rscale>
<asrwt>0</asrwt>
<pdfrwt beam="1">  1       21 0.25741630E-02 0.27894809E+02</pdfrwt>
<pdfrwt beam="2">  1       21 0.76474165E-02 0.27894809E+02</pdfrwt>
<totfact> 0.77135536E+07</totfact>
</mgrwt>
</event>
<event>
 4    1  0.9374408E+003  0.2009141E+02  0.7546771E-02  0.1743516E+00
         21   -1    0    0  504  501  0.00000000000E+00  0.00000000000E+00  0.14040220804E+02  0.14040220804E+02  0.00000000000E+00 0. -1.
         21   -1    0    0  501  502 -0.00000000000E+00 -0.00000000000E+00 -0.31377900755E+02  0.31377900755E+02  0.00000000000E+00 0. -1.
         21    1    1    2  503  502  0.19208961541E+02 -0.58890157666E+01 -0.15240006768E+02  0.25217504168E+02  0.00000000000E+00 0.  1.
         21    1    1    2  504  503 -0.19208961541E+02  0.58890157666E+01 -0.20976731834E+01  0.20200617391E+02  0.00000000000E+00 0.  1.
<mgrwt>
<rscale>  2 0.20091409E+02</rscale>
<asrwt>0</asrwt>
<pdfrwt beam="1">  1       21 0.21600340E-02 0.20091409E+02</pdfrwt>
<pdfrwt beam="2">  1       21 0.48273694E-02 0.20091409E+02</pdfrwt>
<totfact> 0.19298322E+08</totfact>
</mgrwt>
</event>
<event>
 4    1  0.9374408E+003  0.2095062E+02  0.7546771E-02  0.1727059E+00
         21   -1    0    0  504  501  0.00000000000E+00  0.00000000000E+00  0.10724323341E+03  0.10724323341E+03  0.00000000000E+00 0.  1.
         21   -1    0    0  501  502 -0.00000000000E+00 -0.00000000000E+00 -0.69901633595E+01  0.69901633595E+01  0.00000000000E+00 0.  1.
         21    1    1    2  503  502 -0.11057894232E+02  0.17794697823E+02  0.13354413625E+02  0.24844892005E+02  0.00000000000E+00 0. -1.
         21    1    1    2  504  503  0.11057894232E+02 -0.17794697823E+02  0.86898656430E+02  0.89388504769E+02  0.00000000000E+00 0. -1.
<mgrwt>
<rscale>  2 0.20950616E+02</rscale>
<asrwt>0</asrwt>
<pdfrwt beam="1">  1       21 0.16498958E-01 0.20950616E+02</pdfrwt>
<pdfrwt beam="2">  1       21 0.10754098E-02 0.20950616E+02</pdfrwt>
<totfact> 0.75093972E+07</totfact>
</mgrwt>
</event>
<event>
 4    1  0.9374408E+003  0.2745399E+02  0.7546771E-02  0.1628066E+00
         21   -1    0    0  504  501  0.00000000000E+00  0.00000000000E+00  0.43636516868E+03  0.43636516868E+03  0.00000000000E+00 0. -1.
         21   -1    0    0  501  502 -0.00000000000E+00 -0.00000000000E+00 -0.13143352475E+02  0.13143352475E+02  0.00000000000E+00 0. -1.
         21    1    1    2  503  502  0.16208007616E+02 -0.22159018485E+02  0.21449972086E+01  0.27537658290E+02  0.00000000000E+00 0. -1.
         21    1    1    2  504  503 -0.16208007616E+02  0.22159018485E+02  0.42107681900E+03  0.42197086287E+03  0.00000000000E+00 0. -1.
<mgrwt>
<rscale>  2 0.27453991E+02</rscale>
<asrwt>0</asrwt>
<pdfrwt beam="1">  1       21 0.67133092E-01 0.27453991E+02</pdfrwt>
<pdfrwt beam="2">  1       21 0.20220546E-02 0.27453991E+02</pdfrwt>
<totfact> 0.22356602E+06</totfact>
</mgrwt>
</event>
<event>
 4    1  0.9374408E+003  0.2368346E+02  0.7546771E-02  0.1680665E+00
         21   -1    0    0  502  501  0.00000000000E+00  0.00000000000E+00  0.22270518303E+01  0.22270518303E+01  0.00000000000E+00 0. -1.
         21   -1    0    0  504  502 -0.00000000000E+00 -0.00000000000E+00 -0.32409639688E+03  0.32409639688E+03  0.00000000000E+00 0. -1.
         21    1    1    2  503  501 -0.96566445262E+01 -0.21625341253E+02 -0.83905006261E+02  0.87183463131E+02  0.00000000000E+00 0. -1.
         21    1    1    2  504  503  0.96566445262E+01  0.21625341253E+02 -0.23796433879E+03  0.23913998558E+03  0.00000000000E+00 0. -1.
<mgrwt>
<rscale>  2 0.23683458E+02</rscale>
<asrwt>0</asrwt>
<pdfrwt beam="1">  1       21 0.34262334E-03 0.23683458E+02</pdfrwt>
<pdfrwt beam="2">  1       21 0.49860987E-01 0.23683458E+02</pdfrwt>
<totfact> 0.56729004E+07</totfact>
</mgrwt>
</event>
<event>
 4    1  0.9374408E+003  0.2188213E+02  0.7546771E-02  0.1710298E+00
         21   -1    0    0  502  501  0.00000000000E+00  0.00000000000E+00  0.77984041222E+01  0.77984041222E+01  0.00000000000E+00 0. -1.
         21   -1    0    0  504  502 -0.00000000000E+00 -0.00000000000E+00 -0.18912838202E+03  0.18912838202E+03  0.00000000000E+00 0. -1.
         21    1    1    2  503  501 -0.54902109745E+01  0.21182192413E+02 -0.97481494673E+01  0.23955252243E+02  0.00000000000E+00 0.  1.
         21    1    1    2  504  503  0.54902109745E+01 -0.21182192413E+02 -0.17158182843E+03  0.17297153390E+03  0.00000000000E+00 0.  1.
<mgrwt>
<rscale>  2 0.21882132E+02</rscale>
<asrwt>0</asrwt>
<pdfrwt beam="1">  1       21 0.11997545E-02 0.21882132E+02</pdfrwt>
<pdfrwt beam="2">  1       21 0.29096672E-01 0.21882132E+02</pdfrwt>
<totfact> 0.23784187E+07</totfact>
</mgrwt>
</event>
<event>
 4    1  0.9374408E+003  0.2611827E+02  0.7546771E-02  0.1645441E+00
         21   -1    0    0  502  501  0.00000000000E+00  0.00000000000E+00  0.26440528399E+01  0.26440528399E+01  0.00000000000E+00 0. -1.
         21   -1    0    0  504  502 -0.00000000000E+00 -0.00000000000E+00 -0.92486192109E+03  0.92486192109E+03  0.00000000000E+00 0. -1.
         21    1    1    2  503  501  0.20235394108E+02 -0.16513411936E+02 -0.85490052464E+03  0.85529940429E+03  0.00000000000E+00 0. -1.
         21    1    1    2  504  503 -0.20235394108E+02  0.16513411936E+02 -0.67317343606E+02  0.72206569636E+02  0.00000000000E+00 0. -1.
<mgrwt>
<rscale>  2 0.26118268E+02</rscale>
<asrwt>0</asrwt>
<pdfrwt beam="1">  1       21 0.40677726E-03 0.26118268E+02</pdfrwt>
<pdfrwt beam="2">  1       21 0.14228648E+00 0.26118268E+02</pdfrwt>
<totfact> 0.47846741E+06</totfact>
</mgrwt>
</event>
<event>
 4    1  0.9374408E+003  0.2038252E+02  0.7546771E-02  0.1737826E+00
         21   -1    0    0  504  501  0.00000000000E+00  0.00000000000E+00  0.49964824240E+01  0.49964824240E+01  0.00000000000E+00 0. -1.
         21   -1    0    0  501  502 -0.00000000000E+00 -0.00000000000E+00 -0.11554551899E+03  0.11554551899E+03  0.00000000000E+00 0. -1.
         21    1    1    2  503  502 -0.97373222635E+01 -0.17906194699E+02 -0.87189021125E+02  0.89539782545E+02  0.00000000000E+00 0. -1.
         21    1    1    2  504  503  0.97373222635E+01  0.17906194699E+02 -0.23360015446E+02  0.31002218874E+02  0.00000000000E+00 0. -1.
<mgrwt>
<rscale>  2 0.20382523E+02</rscale>
<asrwt>0</asrwt>
<pdfrwt beam="1">  1       21 0.76868957E-03 0.20382523E+02</pdfrwt>
<pdfrwt beam="2">  1       21 0.17776234E-01 0.20382523E+02</pdfrwt>
<totfact> 0.10823576E+08</totfact>
</mgrwt>
</event>
<event>
 4    1  0.9374408E+003  0.2036677E+02  0.7546771E-02  0.1738131E+00
         21   -1    0    0  504  501  0.00000000000E+00  0.00000000000E+00  0.10857236413E+03  0.10857236413E+03  0.00000000000E+00 0. -1.
         21   -1    0    0  501  502 -0.00000000000E+00 -0.00000000000E+00 -0.61787942014E+01  0.61787942014E+01  0.00000000000E+00 0. -1.
         21    1    1    2  503  502  0.20303490431E+02 -0.16043035572E+01  0.86643022309E+02  0.89004600040E+02  0.00000000000E+00 0. -1.
         21    1    1    2  504  503 -0.20303490431E+02  0.16043035572E+01  0.15750547624E+02  0.25746558295E+02  0.00000000000E+00 0. -1.
<mgrwt>
<rscale>  2 0.20366775E+02</rscale>
<asrwt>0</asrwt>
<pdfrwt beam="1">  1       21 0.16703439E-01 0.20366775E+02</pdfrwt>
<pdfrwt beam="2">  1       21 0.95058380E-03 0.20366775E+02</pdfrwt>
<totfact> 0.87748429E+07</totfact>
</mgrwt>
</event>
<event>
 4    1  0.9374408E+003  0.4276939E+02  0.7546771E-02  0.1488767E+00
         21   -1    0    0  502  501  0.00000000000E+00  0.00000000000E+00  0.22866693908E+03  0.22866693908E+03  0.00000000000E+00 0. -1.
         21   -1    0    0  503  502 -0.00000000000E+00 -0.00000000000E+00 -0.19459056354E+02  0.19459056354E+02  0.00000000000E+00 0. -1.
         21    1    1    2  503  504  0.83683467475E+01  0.41942718268E+02  0.93977234547E+01  0.43789702547E+02  0.00000000000E+00 0. -1.
         21    1    1    2  504  501 -0.83683467475E+01 -0.41942718268E+02  0.19981015927E+03  0.20433629289E+03  0.00000000000E+00 0. -1.
<mgrwt>
<rscale>  2 0.42769391E+02</rscale>
<asrwt>0</asrwt>
<pdfrwt beam="1">  1       21 0.35179527E-01 0.42769391E+02</pdfrwt>
<pdfrwt beam="2">  1       21 0.29937011E-02 0.42769391E+02</pdfrwt>
<totfact> 0.45174272E+06</totfact>
</mgrwt>
</event>
<event>
 4    1  0.9374408E+003  0.2431574E+02  0.7546771E-02  0.1671029E+00
         21   -1    0    0  502  501  0.00000000000E+00  0.00000000000E+00  0.55419555263E+02  0.55419555263E+02  0.00000000000E+00 0.  1.
         21   -1    0    0  504  502 -0.00000000000E+00 -0.00000000000E+00 -0.32221359507E+02  0.32221359507E+02  0.00000000000E+00 0.  1.
         21    1    1    2  503  501  0.18695524143E+02  0.15547756132E+02 -0.24239852048E+02  0.34334032257E+02  0.00000000000E+00 0.  1.
         21    1    1    2  504  503 -0.18695524143E+02 -0.15547756132E+02  0.47438047805E+02  0.53306882513E+02  0.00000000000E+00 0.  1.
<mgrwt>
<rscale>  2 0.24315743E+02</rscale>
<asrwt>0</asrwt>
<pdfrwt beam="1">  1       21 0.85260854E-02 0.24315743E+02</pdfrwt>
<pdfrwt beam="2">  1       21 0.49571322E-02 0.24315743E+02</pdfrwt>
<totfact> 0.22255994E+07</totfact>
</mgrwt>
</event>
<event>
 4    1  0.9374408E+003  0.2826805E+02  0.7546771E-02  0.1618062E+00
         21   -1    0    0  502  501  0.00000000000E+00  0.00000000000E+00  0.14437236870E+04  0.14437236870E+04  0.00000000000E+00 0.  1.
         21   -1    0    0  504  502 -0.00000000000E+00 -0.00000000000E+00 -0.76960766521E+00  0.76960766521E+00  0.00000000000E+00 0.  1.
         21    1    1    2  503  501 -0.18695307298E+02  0.21203023198E+02  0.11042124996E+04  0.11045742741E+04  0.00000000000E+00 0.  1.
         21    1    1    2  504  503  0.18695307298E+02 -0.21203023198E+02  0.33874157967E+03  0.33991902051E+03  0.00000000000E+00 0.  1.
<mgrwt>
<rscale>  2 0.28268051E+02</rscale>
<asrwt>0</asrwt>
<pdfrwt beam="1">  1       21 0.22210917E+00 0.28268051E+02</pdfrwt>
<pdfrwt beam="2">  1       21 0.11840233E-03 0.28268051E+02</pdfrwt>
<totfact> 0.94488229E+06</totfact>
</mgrwt>
</event>
<event>
 4    1  0.9374408E+003  0.2234161E+02  0.7546771E-02  0.1702410E+00
         21   -1    0    0  502  501  0.00000000000E+00  0.00000000000E+00  0.15211414920E+04  0.15211414920E+04  0.00000000000E+00 0. -1.
         21   -1    0    0  504  502 -0.00000000000E+00 -0.00000000000E+00 -0.36034971227E+00  0.36034971227E+00  0.00000000000E+00 0. -1.
         21    1    1    2  503  501  0.21501497663E+02 -0.60690404906E+01  0.98783356126E+03  0.98808617661E+03  0.00000000000E+00 0.  1.
         21    1    1    2  504  503 -0.21501497663E+02  0.60690404906E+01  0.53294758103E+03  0.53341566511E+03  0.00000000000E+00 0.  1.
<mgrwt>
<rscale>  2 0.22341613E+02</rscale>
<asrwt>0</asrwt>
<pdfrwt beam="1">  1       21 0.23401663E+00 0.22341613E+02</pdfrwt>
<pdfrwt beam="2">  1       21 0.55439635E-04 0.22341613E+02</pdfrwt>
<totfact> 0.23542520E+07</totfact>
</mgrwt>
</event>
<event>
 4    1  0.9374408E+003  0.2030766E+02  0.7546771E-02  0.1739278E+00
         21   -1    0    0  502  501  0.00000000000E+00  0.00000000000E+00  0.92887540555E+00  0.92887540555E+00  0.00000000000E+00 0. -1.
         21   -1    0    0  504  502 -0.00000000000E+00 -0.00000000000E+00 -0.63985758632E+03  0.63985758632E+03  0.00000000000E+00 0. -1.
         21    1    1    2  503  501  0.18782594393E+02  0.77210805186E+01 -0.14219427829E+03  0.14363709032E+03  0.00000000000E+00 0.  1.
         21    1    1    2  504  503 -0.18782594393E+02 -0.77210805186E+01 -0.49673443262E+03  0.49714937140E+03  0.00000000000E+00 0.  1.
<mgrwt>
<rscale>  2 0.20307657E+02</rscale>
<asrwt>0</asrwt>
<pdfrwt beam="1">  1       21 0.14290352E-03 0.20307657E+02</pdfrwt>
<pdfrwt beam="2">  1       21 0.98439899E-01 0.20307657E+02</pdfrwt>
<totfact> 0.48033384E+07</totfact>
</mgrwt>
</event>
<event>
 4    1  0.9374408E+003  0.2802669E+02  0.7546771E-02  0.1620984E+00
         21   -1    0    0  504  501  0.00000000000E+00  0.00000000000E+00  0.21925233627E+03  0.21925233627E+03  0.00000000000E+00 0.  1.
         21   -1    0    0  501  502 -0.00000000000E+00 -0.00000000000E+00 -0.17014876546E+02  0.17014876546E+02  0.00000000000E+00 0.  1.
         21    1    1    2  503  502 -0.26239485942E+02 -0.98480830692E+01  0.20608112451E+03  0.20797818453E+03  0.00000000000E+00 0. -1.
         21    1    1    2  504  503  0.26239485942E+02  0.98480830692E+01 -0.38436647792E+01  0.28289028289E+02  0.00000000000E+00 0. -1.
<mgrwt>
<rscale>  2 0.28026690E+02</rscale>
<asrwt>0</asrwt>
<pdfrwt beam="1">  1       21 0.33731127E-01 0.28026690E+02</pdfrwt>
<pdfrwt beam="2">  1       21 0.26176735E-02 0.28026690E+02</pdfrwt>
<totfact> 0.57399684E+06</totfact>
</mgrwt>
</event>
<event>
 4    1  0.9374408E+003  0.2098078E+02  0.7546771E-02  0.1726499E+00
         21   -1    0    0  502  501  0.00000000000E+00  0.00000000000E+00  0.60582549472E+02  0.60582549472E+02  0.00000000000E+00 0.  1.
         21   -1    0    0  503  502 -0.00000000000E+00 -0.00000000000E+00 -0.82199703829E+01  0.82199703829E+01  0.00000000000E+00 0.  1.
         21    1    1    2  503  504  0.41096838548E+01 -0.20574342816E+02  0.14461883029E+02  0.25482133828E+02  0.00000000000E+00 0.  1.
         21    1    1    2  504  501 -0.41096838548E+01  0.20574342816E+02  0.37900696060E+02  0.43320386027E+02  0.00000000000E+00 0.  1.
<mgrwt>
<rscale>  2 0.20980779E+02</rscale>
<asrwt>0</asrwt>
<pdfrwt beam="1">  1       21 0.93203919E-02 0.20980779E+02</pdfrwt>
<pdfrwt beam="2">  1       21 0.12646109E-02 0.20980779E+02</pdfrwt>
<totfact> 0.15305320E+08</totfact>
</mgrwt>
</event>
<event>
 4    1  0.9374408E+003  0.3541195E+02  0.7546771E-02  0.1544972E+00
         21   -1    0    0  502  501  0.00000000000E+00  0.00000000000E+00  0.51628429249E+03  0.51628429249E+03  0.00000000000E+00 0. -1.
         21   -1    0    0  503  502 -0.00000000000E+00 -0.00000000000E+00 -0.38376179382E+01  0.38376179382E+01  0.00000000000E+00 0. -1.
         21    1    1    2  503  504 -0.22711934121E+02 -0.27169365929E+02  0.41378671035E+03  0.41529922714E+03  0.00000000000E+00 0.  1.
         21    1    1    2  504  501  0.22711934121E+02  0.27169365929E+02  0.98659964203E+02  0.10482268329E+03  0.00000000000E+00 0.  1.
<mgrwt>
<rscale>  2 0.35411953E+02</rscale>
<asrwt>0</asrwt>
<pdfrwt beam="1">  1       21 0.79428297E-01 0.35411953E+02</pdfrwt>
<pdfrwt beam="2">  1       21 0.59040317E-03 0.35411953E+02</pdfrwt>
<totfact> 0.10551882E+07</totfact>
</mgrwt>
</event>
<event>
 4    1  0.9374408E+003  0.2068146E+02  0.7546771E-02  0.1732106E+00
         21   -1    0    0  504  501  0.00000000000E+00  0.00000000000E+00  0.38780123201E+02  0.38780123201E+02  0.00000000000E+00 0.  1.
         21   -1    0    0  501  502 -0.00000000000E+00 -0.00000000000E+00 -0.12654240647E+02  0.12654240647E+02  0.00000000000E+00 0.  1.
         21    1    1    2  503  502 -0.10267422622E+01 -0.20655954315E+02  0.22278182985E+02  0.30398027658E+02  0.00000000000E+00 0.  1.
         21    1    1    2  504  503  0.10267422622E+01  0.20655954315E+02  0.38476995692E+01  0.21036336191E+02  0.00000000000E+00 0.  1.
<mgrwt>
<rscale>  2 0.20681457E+02</rscale>
<asrwt>0</asrwt>
<pdfrwt beam="1">  1       21 0.59661727E-02 0.20681457E+02</pdfrwt>
<pdfrwt beam="2">  1       21 0.19468063E-02 0.20681457E+02</pdfrwt>
<totfact> 0.16306703E+08</totfact>
</mgrwt>
</event>
<event>
 4    1  0.9374408E+003  0.2010054E+02  0.7546771E-02  0.1743336E+00
         21   -1    0    0  503  501  0.00000000000E+00  0.00000000000E+00  0.12663571140E+03  0.12663571140E+03  0.00000000000E+00 0. -1.
         21   -1    0    0  501  502 -0.00000000000E+00 -0.00000000000E+00 -0.10434101075E+02  0.10434101075E+02  0.00000000000E+00 0. -1.
         21    1    1    2  503  504 -0.19105033371E+02  0.62473381990E+01  0.99746726487E+00  0.20125269579E+02  0.00000000000E+00 0. -1.
         21    1    1    2  504  502  0.19105033371E+02 -0.62473381990E+01  0.11520414306E+03  0.11694454289E+03  0.00000000000E+00 0. -1.
<mgrwt>
<rscale>  2 0.20100536E+02</rscale>
<asrwt>0</asrwt>
<pdfrwt beam="1">  1       21 0.19482416E-01 0.20100536E+02</pdfrwt>
<pdfrwt beam="2">  1       21 0.16052464E-02 0.20100536E+02</pdfrwt>
<totfact> 0.30515825E+07</totfact>
</mgrwt>
</event>
<event>
 4    1  0.9374408E+003  0.2132715E+02  0.7546771E-02  0.1720155E+00
         21   -1    0    0  504  501  0.00000000000E+00  0.00000000000E+00  0.13991084216E+02  0.13991084216E+02  0.00000000000E+00 0. -1.
         21   -1    0    0  501  502 -0.00000000000E+00 -0.00000000000E+00 -0.57075279585E+02  0.57075279585E+02  0.00000000000E+00 0. -1.
         21    1    1    2  503  502 -0.29955691846E+01  0.21115729458E+02 -0.44853726851E+02  0.49665926727E+02  0.00000000000E+00 0.  1.
         21    1    1    2  504  503  0.29955691846E+01 -0.21115729458E+02  0.17695314815E+01  0.21400437074E+02  0.00000000000E+00 0.  1.
<mgrwt>
<rscale>  2 0.21327153E+02</rscale>
<asrwt>0</asrwt>
<pdfrwt beam="1">  1       21 0.21524745E-02 0.21327153E+02</pdfrwt>
<pdfrwt beam="2">  1       21 0.87808122E-02 0.21327153E+02</pdfrwt>
<totfact> 0.75551930E+07</totfact>
</mgrwt>
</event>
<event>
 4    1  0.9374408E+003  0.2239325E+02  0.7546771E-02  0.1701538E+00
         21   -1    0    0  502  501  0.00000000000E+00  0.00000000000E+00  0.76003431954E+03  0.76003431954E+03  0.00000000000E+00 0. -1.
         21   -1    0    0  503  502 -0.00000000000E+00 -0.00000000000E+00 -0.83945863241E+00  0.83945863241E+00  0.00000000000E+00 0. -1.
         21    1    1    2  503  504  0.17635968476E+02  0.13799647284E+02  0.55560351474E+03  0.55605460455E+03  0.00000000000E+00 0. -1.
         21    1    1    2  504  501 -0.17635968476E+02 -0.13799647284E+02  0.20359134617E+03  0.20481917362E+03  0.00000000000E+00 0. -1.
<mgrwt>
<rscale>  2 0.22393250E+02</rscale>
<asrwt>0</asrwt>
<pdfrwt beam="1">  1       21 0.11692781E+00 0.22393250E+02</pdfrwt>
<pdfrwt beam="2">  1       21 0.12914809E-03 0.22393250E+02</pdfrwt>
<totfact> 0.38779202E+07</totfact>
</mgrwt>
</event>
<event>
 4    1  0.9374408E+003  0.2106019E+02  0.7546771E-02  0.1725031E+00
         21   -1    0    0  503  501  0.00000000000E+00  0.00000000000E+00  0.79352476734E+02  0.79352476734E+02  0.00000000000E+00 0. -1.
         21   -1    0    0  501  502 -0.00000000000E+00 -0.00000000000E+00 -0.15420107876E+02  0.15420107876E+02  0.00000000000E+00 0. -1.
         21    1    1    2  503  504 -0.89342582246E+01 -0.19071193636E+02  0.69801885946E+02  0.72909770802E+02  0.00000000000E+00 0.  1.
         21    1    1    2  504  502  0.89342582246E+01  0.19071193636E+02 -0.58695170882E+01  0.21862813807E+02  0.00000000000E+00 0.  1.
<mgrwt>
<rscale>  2 0.21060185E+02</rscale>
<asrwt>0</asrwt>
<pdfrwt beam="1">  1       21 0.12208073E-01 0.21060185E+02</pdfrwt>
<pdfrwt beam="2">  1       21 0.23723243E-02 0.21060185E+02</pdfrwt>
<totfact> 0.37621454E+07</totfact>
</mgrwt>
</event>
<event>
 4    1  0.9374408E+003  0.2892635E+02  0.7546771E-02  0.1610269E+00
         21   -1    0    0  502  501  0.00000000000E+00  0.00000000000E+00  0.66519383122E+01  0.66519383122E+01  0.00000000000E+00 0. -1.
         21   -1    0    0  503  502 -0.00000000000E+00 -0.00000000000E+00 -0.17719008427E+03  0.17719008427E+03  0.00000000000E+00 0. -1.
         21    1    1    2  503  504  0.20636917739E+02  0.20269474092E+02 -0.13477822533E+03  0.13784739380E+03  0.00000000000E+00 0.  1.
         21    1    1    2  504  501 -0.20636917739E+02 -0.20269474092E+02 -0.35759920629E+02  0.45994628786E+02  0.00000000000E+00 0.  1.
<mgrwt>
<rscale>  2 0.28926354E+02</rscale>
<asrwt>0</asrwt>
<pdfrwt beam="1">  1       21 0.10233751E-02 0.28926354E+02</pdfrwt>
<pdfrwt beam="2">  1       21 0.27260015E-01 0.28926354E+02</pdfrwt>
<totfact> 0.36144484E+07</totfact>
</mgrwt>
</event>
<event>
 4    1  0.9374408E+003  0.2398582E+02  0.7546771E-02  0.1676011E+00
         21   -1    0    0  502  501  0.00000000000E+00  0.00000000000E+00  0.42644297731E+02  0.42644297731E+02  0.00000000000E+00 0.  1.
         21   -1    0    0  503  502 -0.00000000000E+00 -0.00000000000E+00 -0.24763414523E+02  0.24763414523E+02  0.00000000000E+00 0.  1.
         21    1    1    2  503  504  0.12846261072E+02  0.20255698725E+02  0.31679909823E+02  0.39735833209E+02  0.00000000000E+00 0. -1.
         21    1    1    2  504  501 -0.12846261072E+02 -0.20255698725E+02 -0.13799026615E+02  0.27671879045E+02  0.00000000000E+00 0. -1.
<mgrwt>
<rscale>  2 0.23985824E+02</rscale>
<asrwt>0</asrwt>
<pdfrwt beam="1">  1       21 0.65606612E-02 0.23985824E+02</pdfrwt>
<pdfrwt beam="2">  1       21 0.38097561E-02 0.23985824E+02</pdfrwt>
<totfact> 0.51588779E+07</totfact>
</mgrwt>
</event>
<event>
 4    1  0.9374408E+003  0.2599164E+02  0.7546771E-02  0.1647154E+00
         21   -1    0    0  502  501  0.00000000000E+00  0.00000000000E+00  0.18451561570E+02  0.18451561570E+02  0.00000000000E+00 0.  1.
         21   -1    0    0  503  502 -0.00000000000E+00 -0.00000000000E+00 -0.39372608969E+02  0.39372608969E+02  0.00000000000E+00 0.  1.
         21    1    1    2  503  504  0.14135645753E+02  0.21811669652E+02 -0.18114955510E+02  0.31681493446E+02  0.00000000000E+00 0.  1.
         21    1    1    2  504  501 -0.14135645753E+02 -0.21811669652E+02 -0.28060918885E+01  0.26142677092E+02  0.00000000000E+00 0.  1.
<mgrwt>
<rscale>  2 0.25991641E+02</rscale>
<asrwt>0</asrwt>
<pdfrwt beam="1">  1       21 0.28387018E-02 0.25991641E+02</pdfrwt>
<pdfrwt beam="2">  1       21 0.60573244E-02 0.25991641E+02</pdfrwt>
<totfact> 0.95028991E+07</totfact>
</mgrwt>
</event>
<event>
 4    1  0.9374408E+003  0.5913626E+02  0.7546771E-02  0.1401493E+00
         21   -1    0    0  502  501  0.00000000000E+00  0.00000000000E+00  0.31126768868E+03  0.31126768868E+03  0.00000000000E+00 0.  1.
         21   -1    0    0  503  502 -0.00000000000E+00 -0.00000000000E+00 -0.19547242222E+02  0.19547242222E+02  0.00000000000E+00 0.  1.
         21    1    1    2  503  504 -0.16665124334E+02  0.56739498875E+02  0.37997577910E+02  0.70291628440E+02  0.00000000000E+00 0.  1.
         21    1    1    2  504  501  0.16665124334E+02 -0.56739498875E+02  0.25372286854E+03  0.26052330246E+03  0.00000000000E+00 0.  1.
<mgrwt>
<rscale>  2 0.59136259E+02</rscale>
<asrwt>0</asrwt>
<pdfrwt beam="1">  1       21 0.47887333E-01 0.59136259E+02</pdfrwt>
<pdfrwt beam="2">  1       21 0.30072683E-02 0.59136259E+02</pdfrwt>
<totfact> 0.25220231E+06</totfact>
</mgrwt>
</event>
<event>
 4    1  0.9374408E+003  0.2271586E+02  0.7546771E-02  0.1696158E+00
         21   -1    0    0  504  501  0.00000000000E+00  0.00000000000E+00  0.12345030028E+03  0.12345030028E+03  0.00000000000E+00 0. -1.
         21   -1    0    0  501  502 -0.00000000000E+00 -0.00000000000E+00 -0.59891288279E+01  0.59891288279E+01  0.00000000000E+00 0. -1.
         21    1    1    2  503  502 -0.14894425321E+02 -0.17151285721E+02  0.94301983774E+02  0.96999353870E+02  0.00000000000E+00 0.  1.
         21    1    1    2  504  503  0.14894425321E+02  0.17151285721E+02  0.23159187676E+02  0.32440075236E+02  0.00000000000E+00 0.  1.
<mgrwt>
<rscale>  2 0.22715865E+02</rscale>
<asrwt>0</asrwt>
<pdfrwt beam="1">  1       21 0.18992352E-01 0.22715865E+02</pdfrwt>
<pdfrwt beam="2">  1       21 0.92140453E-03 0.22715865E+02</pdfrwt>
<totfact> 0.75948609E+07</totfact>
</mgrwt>
</event>
<event>
 4    1  0.9374408E+003  0.2228489E+02  0.7546771E-02  0.1703371E+00
         21   -1    0    0  502  501  0.00000000000E+00  0.00000000000E+00  0.52580119136E+03  0.52580119136E+03  0.00000000000E+00 0.  1.
         21   -1    0    0  504  502 -0.00000000000E+00 -0.00000000000E+00 -0.12383346315E+01  0.12383346315E+01  0.00000000000E+00 0.  1.
         21    1    1    2  503  501  0.91908537491E-01  0.22284699434E+02  0.13391548485E+03  0.13575703797E+03  0.00000000000E+00 0. -1.
         21    1    1    2  504  503 -0.91908537491E-01 -0.22284699434E+02  0.39064737188E+03  0.39128248802E+03  0.00000000000E+00 0. -1.
<mgrwt>
<rscale>  2 0.22284889E+02</rscale>
<asrwt>0</asrwt>
<pdfrwt beam="1">  1       21 0.80892313E-01 0.22284889E+02</pdfrwt>
<pdfrwt beam="2">  1       21 0.19051344E-03 0.22284889E+02</pdfrwt>
<totfact> 0.49367050E+07</totfact>
</mgrwt>
</event>
<event>
 4    1  0.9374408E+003  0.2376476E+02  0.7546771E-02  0.1679405E+00
         21   -1    0    0  502  501  0.00000000000E+00  0.00000000000E+00  0.32804086648E+02  0.32804086648E+02  0.00000000000E+00 0. -1.
         21   -1    0    0  503  502 -0.00000000000E+00 -0.00000000000E+00 -0.57334010607E+02  0.57334010607E+02  0.00000000000E+00 0. -1.
         21    1    1    2  503  504  0.22513011812E+02 -0.76110568755E+01  0.25434962740E+02  0.34809498950E+02  0.00000000000E+00 0. -1.
         21    1    1    2  504  501 -0.22513011812E+02  0.76110568755E+01 -0.49964886699E+02  0.55328598305E+02  0.00000000000E+00 0. -1.
<mgrwt>
<rscale>  2 0.23764761E+02</rscale>
<asrwt>0</asrwt>
<pdfrwt beam="1">  1       21 0.50467826E-02 0.23764761E+02</pdfrwt>
<pdfrwt beam="2">  1       21 0.88206170E-02 0.23764761E+02</pdfrwt>
<totfact> 0.20350265E+07</totfact>
</mgrwt>
</event>
<event>
 4    1  0.9374408E+003  0.2058904E+02  0.7546771E-02  0.1733862E+00
         21   -1    0    0  502  501  0.00000000000E+00  0.00000000000E+00  0.43752750735E+00  0.43752750735E+00  0.00000000000E+00 0. -1.
         21   -1    0    0  504  502 -0.00000000000E+00 -0.00000000000E+00 -0.13703865808E+04  0.13703865808E+04  0.00000000000E+00 0. -1.
         21    1    1    2  503  501 -0.59766975543E+01  0.19702477781E+02 -0.10559800402E+04  0.10561807392E+04  0.00000000000E+00 0.  1.
         21    1    1    2  504  503  0.59766975543E+01 -0.19702477781E+02 -0.31396901309E+03  0.31464336911E+03  0.00000000000E+00 0.  1.
<mgrwt>
<rscale>  2 0.20589039E+02</rscale>
<asrwt>0</asrwt>
<pdfrwt beam="1">  1       21 0.67311580E-04 0.20589039E+02</pdfrwt>
<pdfrwt beam="2">  1       21 0.21082978E+00 0.20589039E+02</pdfrwt>
<totfact> 0.23385599E+07</totfact>
</mgrwt>
</event>
<event>
 4    1  0.9374408E+003  0.2077383E+02  0.7546771E-02  0.1730363E+00
         21   -1    0    0  502  501  0.00000000000E+00  0.00000000000E+00  0.75952420603E+00  0.75952420603E+00  0.00000000000E+00 0.  1.
         21   -1    0    0  503  502 -0.00000000000E+00 -0.00000000000E+00 -0.64759342031E+03  0.64759342031E+03  0.00000000000E+00 0.  1.
         21    1    1    2  503  504  0.19868451502E+02  0.60660240759E+01 -0.20990090400E+03  0.21092638885E+03  0.00000000000E+00 0.  1.
         21    1    1    2  504  501 -0.19868451502E+02 -0.60660240759E+01 -0.43693299210E+03  0.43742655566E+03  0.00000000000E+00 0.  1.
<mgrwt>
<rscale>  2 0.20773830E+02</rscale>
<asrwt>0</asrwt>
<pdfrwt beam="1">  1       21 0.11684987E-03 0.20773830E+02</pdfrwt>
<pdfrwt beam="2">  1       21 0.99629767E-01 0.20773830E+02</pdfrwt>
<totfact> 0.62681026E+07</totfact>
</mgrwt>
</event>
<event>
 4    1  0.9374408E+003  0.6404909E+02  0.7546771E-02  0.1381585E+00
         21   -1    0    0  502  501  0.00000000000E+00  0.00000000000E+00  0.15322859447E+03  0.15322859447E+03  0.00000000000E+00 0. -1.
         21   -1    0    0  504  502 -0.00000000000E+00 -0.00000000000E+00 -0.59074213895E+02  0.59074213895E+02  0.00000000000E+00 0. -1.
         21    1    1    2  503  501  0.26288692070E+02 -0.58405393462E+02 -0.31417584100E+02  0.71339679750E+02  0.00000000000E+00 0. -1.
         21    1    1    2  504  503 -0.26288692070E+02  0.58405393462E+02  0.12557196467E+03  0.14096312861E+03  0.00000000000E+00 0. -1.
<mgrwt>
<rscale>  2 0.64049085E+02</rscale>
<asrwt>0</asrwt>
<pdfrwt beam="1">  1       21 0.23573630E-01 0.64049085E+02</pdfrwt>
<pdfrwt beam="2">  1       21 0.90883406E-02 0.64049085E+02</pdfrwt>
<totfact> 0.15838436E+06</totfact>
</mgrwt>
</event>
<event>
 4    1  0.9374408E+003  0.2377369E+02  0.7546771E-02  0.1679267E+00
         21   -1    0    0  502  501  0.00000000000E+00  0.00000000000E+00  0.12259436230E+04  0.12259436230E+04  0.00000000000E+00 0.  1.
         21   -1    0    0  504  502 -0.00000000000E+00 -0.00000000000E+00 -0.48957771461E+00  0.48957771461E+00  0.00000000000E+00 0.  1.
         21    1    1    2  503  501 -0.18021182348E+02  0.15505661760E+02  0.76082182122E+03  0.76119316353E+03  0.00000000000E+00 0.  1.
         21    1    1    2  504  503  0.18021182348E+02 -0.15505661760E+02  0.46463222403E+03  0.46524003715E+03  0.00000000000E+00 0.  1.
<mgrwt>
<rscale>  2 0.23773695E+02</rscale>
<asrwt>0</asrwt>
<pdfrwt beam="1">  1       21 0.18860425E+00 0.23773695E+02</pdfrwt>
<pdfrwt beam="2">  1       21 0.75320630E-04 0.23773695E+02</pdfrwt>
<totfact> 0.27139182E+07</totfact>
</mgrwt>
</event>
<event>
 4    1  0.9374408E+003  0.2212523E+02  0.7546771E-02  0.1706095E+00
         21   -1    0    0  504  501  0.00000000000E+00  0.00000000000E+00  0.14591409881E+02  0.14591409881E+02  0.00000000000E+00 0.  1.
         21   -1    0    0  501  502 -0.00000000000E+00 -0.00000000000E+00 -0.94182426732E+02  0.94182426732E+02  0.00000000000E+00 0.  1.
         21    1    1    2  503  502 -0.51119319912E+01  0.21526582645E+02  0.38426045952E+01  0.22456429349E+02  0.00000000000E+00 0.  1.
         21    1    1    2  504  503  0.51119319912E+01 -0.21526582645E+02 -0.83433621446E+02  0.86317407263E+02  0.00000000000E+00 0.  1.
<mgrwt>
<rscale>  2 0.22125226E+02</rscale>
<asrwt>0</asrwt>
<pdfrwt beam="1">  1       21 0.22448324E-02 0.22125226E+02</pdfrwt>
<pdfrwt beam="2">  1       21 0.14489604E-01 0.22125226E+02</pdfrwt>
<totfact> 0.31074584E+07</totfact>
</mgrwt>
</event>
<event>
 4    1  0.9374408E+003  0.2002753E+02  0.7546771E-02  0.1744781E+00
         21   -1    0    0  502  501  0.00000000000E+00  0.00000000000E+00  0.40046677812E+03  0.40046677812E+03  0.00000000000E+00 0. -1.
         21   -1    0    0  504  502 -0.00000000000E+00 -0.00000000000E+00 -0.13178818224E+01  0.13178818224E+01  0.00000000000E+00 0. -1.
         21    1    1    2  503  501 -0.19625624399E+02 -0.39921202326E+01  0.10115714941E+03  0.10312066249E+03  0.00000000000E+00 0. -1.
         21    1    1    2  504  503  0.19625624399E+02  0.39921202326E+01  0.29799174689E+03  0.29866399745E+03  0.00000000000E+00 0. -1.
<mgrwt>
<rscale>  2 0.20027535E+02</rscale>
<asrwt>0</asrwt>
<pdfrwt beam="1">  1       21 0.61610177E-01 0.20027535E+02</pdfrwt>
<pdfrwt beam="2">  1       21 0.20275137E-03 0.20027535E+02</pdfrwt>
<totfact> 0.76753832E+07</totfact>
</mgrwt>
</event>
<event>
 4    1  0.9374408E+003  0.2189272E+02  0.7546771E-02  0.1710114E+00
         21   -1    0    0  502  501  0.00000000000E+00  0.00000000000E+00  0.19396138149E+03  0.19396138149E+03  0.00000000000E+00 0. -1.
         21   -1    0    0  503  502 -0.00000000000E+00 -0.00000000000E+00 -0.10149177966E+02  0.10149177966E+02  0.00000000000E+00 0. -1.
         21    1    1    2  503  504 -0.17646367362E+02  0.12957508499E+02  0.31399742719E+01  0.22116752610E+02  0.00000000000E+00 0. -1.
         21    1    1    2  504  501  0.17646367362E+02 -0.12957508499E+02  0.18067222925E+03  0.18199380684E+03  0.00000000000E+00 0. -1.
<mgrwt>
<rscale>  2 0.21892723E+02</rscale>
<asrwt>0</asrwt>
<pdfrwt beam="1">  1       21 0.29840210E-01 0.21892723E+02</pdfrwt>
<pdfrwt beam="2">  1       21 0.15614121E-02 0.21892723E+02</pdfrwt>
<totfact> 0.15252856E+07</totfact>
</mgrwt>
</event>
<event>
 4    1  0.9374408E+003  0.2311861E+02  0.7546771E-02  0.1689595E+00
         21   -1    0    0  502  501  0.00000000000E+00  0.00000000000E+00  0.98278285730E+01  0.98278285730E+01  0.00000000000E+00 0.  1.
         21   -1    0    0  503  502 -0.00000000000E+00 -0.00000000000E+00 -0.14462692751E+03  0.14462692751E+03  0.00000000000E+00 0.  1.
         21    1    1    2  503  504 -0.20961817093E+02  0.97504992369E+01 -0.63960262173E+01  0.23987062400E+02  0.00000000000E+00 0. -1.
         21    1    1    2  504  501  0.20961817093E+02 -0.97504992369E+01 -0.12840307272E+03  0.13046769368E+03  0.00000000000E+00 0. -1.
<mgrwt>
<rscale>  2 0.23118607E+02</rscale>
<asrwt>0</asrwt>
<pdfrwt beam="1">  1       21 0.15119735E-02 0.23118607E+02</pdfrwt>
<pdfrwt beam="2">  1       21 0.22250298E-01 0.23118607E+02</pdfrwt>
<totfact> 0.27388509E+07</totfact>
</mgrwt>
</event>
<event>
 4    1  0.9374408E+003  0.2139788E+02  0.7546771E-02  0.1718878E+00
         21   -1    0    0  502  501  0.00000000000E+00  0.00000000000E+00  0.79633561157E+01  0.79633561157E+01  0.00000000000E+00 0.  1.
         21   -1    0    0  504  502 -0.00000000000E+00 -0.00000000000E+00 -0.72288072584E+02  0.72288072584E+02  0.00000000000E+00 0.  1.
         21    1    1    2  503  501  0.18352180761E+02 -0.11003027735E+02 -0.14011834676E+02  0.25577346794E+02  0.00000000000E+00 0.  1.
         21    1    1    2  504  503 -0.18352180761E+02  0.11003027735E+02 -0.50312881793E+02  0.54674081906E+02  0.00000000000E+00 0.  1.
<mgrwt>
<rscale>  2 0.21397877E+02</rscale>
<asrwt>0</asrwt>
<pdfrwt beam="1">  1       21 0.12251317E-02 0.21397877E+02</pdfrwt>
<pdfrwt beam="2">  1       21 0.11121242E-01 0.21397877E+02</pdfrwt>
<totfact> 0.12065718E+08</totfact>
</mgrwt>
</event>
<event>
 4    1  0.9374408E+003  0.2087598E+02  0.7546771E-02  0.1728449E+00
         21   -1    0    0  502  501  0.00000000000E+00  0.00000000000E+00  0.11245843107E+03  0.11245843107E+03  0.00000000000E+00 0. -1.
         21   -1    0    0  503  502 -0.00000000000E+00 -0.00000000000E+00 -0.49105511768E+01  0.49105511768E+01  0.00000000000E+00 0. -1.
         21    1    1    2  503  504 -0.77855407154E+01  0.19369873136E+02  0.26828351669E+02  0.33993632975E+02  0.00000000000E+00 0.  1.
         21    1    1    2  504  501  0.77855407154E+01 -0.19369873136E+02  0.80719528228E+02  0.83375349276E+02  0.00000000000E+00 0.  1.
<mgrwt>
<rscale>  2 0.20875982E+02</rscale>
<asrwt>0</asrwt>
<pdfrwt beam="1">  1       21 0.17301295E-01 0.20875982E+02</pdfrwt>
<pdfrwt beam="2">  1       21 0.75546950E-03 0.20875982E+02</pdfrwt>
<totfact> 0.11715429E+08</totfact>
</mgrwt>
</event>
<event>
 4    1  0.9374408E+003  0.2030694E+02  0.7546771E-02  0.1739292E+00
         21   -1    0    0  502  501  0.00000000000E+00  0.00000000000E+00  0.18820626754E+03  0.18820626754E+03  0.00000000000E+00 0.  1.
         21   -1    0    0  503  502 -0.00000000000E+00 -0.00000000000E+00 -0.24039884516E+01  0.24039884516E+01  0.00000000000E+00 0.  1.
         21    1    1    2  503  504 -0.16559913163E+02  0.11753340156E+02  0.64537353800E+02  0.67656793926E+02  0.00000000000E+00 0.  1.
         21    1    1    2  504  501  0.16559913163E+02 -0.11753340156E+02  0.12126492528E+03  0.12295346206E+03  0.00000000000E+00 0.  1.
<mgrwt>
<rscale>  2 0.20306938E+02</rscale>
<asrwt>0</asrwt>
<pdfrwt beam="1">  1       21 0.28954799E-01 0.20306938E+02</pdfrwt>
<pdfrwt beam="2">  1       21 0.36984453E-03 0.20306938E+02</pdfrwt>
<totfact> 0.13457110E+08</totfact>
</mgrwt>
</event>
<event>
 4    1  0.9374408E+003  0.2298638E+02  0.7546771E-02  0.1691731E+00
         21   -1    0    0  503  501  0.00000000000E+00  0.00000000000E+00  0.10436179411E+03  0.10436179411E+03  0.00000000000E+00 0.  1.
         21   -1    0    0  501  502 -0.00000000000E+00 -0.00000000000E+00 -0.57268373937E+01  0.57268373937E+01  0.00000000000E+00 0.  1.
         21    1    1    2  503  504  0.21203716177E+01 -0.22888372517E+02  0.30575395714E+02  0.38252168505E+02  0.00000000000E+00 0.  1.
         21    1    1    2  504  502 -0.21203716177E+01  0.22888372517E+02  0.68059561003E+02  0.71836462999E+02  0.00000000000E+00 0.  1.
<mgrwt>
<rscale>  2 0.22986378E+02</rscale>
<asrwt>0</asrwt>
<pdfrwt beam="1">  1       21 0.16055659E-01 0.22986378E+02</pdfrwt>
<pdfrwt beam="2">  1       21 0.88105199E-03 0.22986378E+02</pdfrwt>
<totfact> 0.10883668E+08</totfact>
</mgrwt>
</event>
<event>
 4    1  0.9374408E+003  0.2285217E+02  0.7546771E-02  0.1693918E+00
         21   -1    0    0  503  501  0.00000000000E+00  0.00000000000E+00  0.46509855480E+03  0.46509855480E+03  0.00000000000E+00 0. -1.
         21   -1    0    0  501  502 -0.00000000000E+00 -0.00000000000E+00 -0.13917680040E+01  0.13917680040E+01  0.00000000000E+00 0. -1.
         21    1    1    2  503  504 -0.16329741782E+02  0.15986276519E+02  0.12932027335E+03  0.13132385390E+03  0.00000000000E+00 0.  1.
         21    1    1    2  504  502  0.16329741782E+02 -0.15986276519E+02  0.33438651345E+03  0.33516646891E+03  0.00000000000E+00 0.  1.
<mgrwt>
<rscale>  2 0.22852166E+02</rscale>
<asrwt>0</asrwt>
<pdfrwt beam="1">  1       21 0.71553500E-01 0.22852166E+02</pdfrwt>
<pdfrwt beam="2">  1       21 0.21411853E-03 0.22852166E+02</pdfrwt>
<totfact> 0.54128410E+07</totfact>
</mgrwt>
</event>
<event>
 4    1  0.9374408E+003  0.2711333E+02  0.7546771E-02  0.1632380E+00
         21   -1    0    0  502  501  0.00000000000E+00  0.00000000000E+00  0.59417133099E+01  0.59417133099E+01  0.00000000000E+00 0. -1.
         21   -1    0    0  504  502 -0.00000000000E+00 -0.00000000000E+00 -0.48750844813E+03  0.48750844813E+03  0.00000000000E+00 0. -1.
         21    1    1    2  503  501  0.21321393530E+02  0.16749056677E+02 -0.45391321416E+03  0.45472226547E+03  0.00000000000E+00 0.  1.
         21    1    1    2  504  503 -0.21321393530E+02 -0.16749056677E+02 -0.27653520659E+02  0.38727895973E+02  0.00000000000E+00 0.  1.
<mgrwt>
<rscale>  2 0.27113331E+02</rscale>
<asrwt>0</asrwt>
<pdfrwt beam="1">  1       21 0.91410920E-03 0.27113331E+02</pdfrwt>
<pdfrwt beam="2">  1       21 0.75001344E-01 0.27113331E+02</pdfrwt>
<totfact> 0.59553237E+06</totfact>
</mgrwt>
</event>
<event>
 4    1  0.9374408E+003  0.2741582E+02  0.7546771E-02  0.1628546E+00
         21   -1    0    0  503  501  0.00000000000E+00  0.00000000000E+00  0.37542091551E+02  0.37542091551E+02  0.00000000000E+00 0.  1.
         21   -1    0    0  501  502 -0.00000000000E+00 -0.00000000000E+00 -0.27173162445E+02  0.27173162445E+02  0.00000000000E+00 0.  1.
         21    1    1    2  503  504  0.15362630394E+02 -0.22707194285E+02  0.21785217563E+02  0.35017464060E+02  0.00000000000E+00 0.  1.
         21    1    1    2  504  502 -0.15362630394E+02  0.22707194285E+02 -0.11416288457E+02  0.29697789936E+02  0.00000000000E+00 0.  1.
<mgrwt>
<rscale>  2 0.27415818E+02</rscale>
<asrwt>0</asrwt>
<pdfrwt beam="1">  1       21 0.57757064E-02 0.27415818E+02</pdfrwt>
<pdfrwt beam="2">  1       21 0.41804865E-02 0.27415818E+02</pdfrwt>
<totfact> 0.56532782E+07</totfact>
</mgrwt>
</event>
<event>
 4    1  0.9374408E+003  0.4331849E+02  0.7546771E-02  0.1485120E+00
         21   -1    0    0  502  501  0.00000000000E+00  0.00000000000E+00  0.30606052778E+02  0.30606052778E+02  0.00000000000E+00 0.  1.
         21   -1    0    0  504  502 -0.00000000000E+00 -0.00000000000E+00 -0.79461251618E+02  0.79461251618E+02  0.00000000000E+00 0.  1.
         21    1    1    2  503  501  0.15335571749E+02 -0.40513108749E+02  0.18744978840E+01  0.43359030014E+02  0.00000000000E+00 0.  1.
         21    1    1    2  504  503 -0.15335571749E+02  0.40513108749E+02 -0.50729696724E+02  0.66708274383E+02  0.00000000000E+00 0.  1.
<mgrwt>
<rscale>  2 0.43318492E+02</rscale>
<asrwt>0</asrwt>
<pdfrwt beam="1">  1       21 0.47086235E-02 0.43318492E+02</pdfrwt>
<pdfrwt beam="2">  1       21 0.12224808E-01 0.43318492E+02</pdfrwt>
<totfact> 0.14629096E+07</totfact>
</mgrwt>
</event>
<event>
 4    1  0.9374408E+003  0.2628670E+02  0.7546771E-02  0.1643180E+00
         21   -1    0    0  502  501  0.00000000000E+00  0.00000000000E+00  0.82236948295E+02  0.82236948295E+02  0.00000000000E+00 0. -1.
         21   -1    0    0  504  502 -0.00000000000E+00 -0.00000000000E+00 -0.89108557534E+01  0.89108557534E+01  0.00000000000E+00 0. -1.
         21    1    1    2  503  501 -0.12756892408E+02  0.22983745013E+02  0.25777080401E+02  0.36816419064E+02  0.00000000000E+00 0.  1.
         21    1    1    2  504  503  0.12756892408E+02 -0.22983745013E+02  0.47549012140E+02  0.54331384984E+02  0.00000000000E+00 0.  1.
<mgrwt>
<rscale>  2 0.26286705E+02</rscale>
<asrwt>0</asrwt>
<pdfrwt beam="1">  1       21 0.12651838E-01 0.26286705E+02</pdfrwt>
<pdfrwt beam="2">  1       21 0.13709009E-02 0.26286705E+02</pdfrwt>
<totfact> 0.86794814E+07</totfact>
</mgrwt>
</event>
<event>
 4    1  0.9374408E+003  0.3736098E+02  0.7546771E-02  0.1528581E+00
         21   -1    0    0  502  501  0.00000000000E+00  0.00000000000E+00  0.13263529976E+04  0.13263529976E+04  0.00000000000E+00 0.  1.
         21   -1    0    0  504  502 -0.00000000000E+00 -0.00000000000E+00 -0.16234388767E+01  0.16234388767E+01  0.00000000000E+00 0.  1.
         21    1    1    2  503  501  0.24631791775E+01 -0.37279696081E+02  0.10561671866E+04  0.10568277859E+04  0.00000000000E+00 0.  1.
         21    1    1    2  504  503 -0.24631791775E+01  0.37279696081E+02  0.26856237219E+03  0.27114865064E+03  0.00000000000E+00 0.  1.
<mgrwt>
<rscale>  2 0.37360982E+02</rscale>
<asrwt>0</asrwt>
<pdfrwt beam="1">  1       21 0.20405344E+00 0.37360982E+02</pdfrwt>
<pdfrwt beam="2">  1       21 0.24976089E-03 0.37360982E+02</pdfrwt>
<totfact> 0.40858871E+06</totfact>
</mgrwt>
</event>
<event>
 4    1  0.9374408E+003  0.2532212E+02  0.7546771E-02  0.1656418E+00
         21   -1    0    0  502  501  0.00000000000E+00  0.00000000000E+00  0.76068281774E+01  0.76068281774E+01  0.00000000000E+00 0.  1.
         21   -1    0    0  504  502 -0.00000000000E+00 -0.00000000000E+00 -0.12270175834E+03  0.12270175834E+03  0.00000000000E+00 0.  1.
         21    1    1    2  503  501 -0.43642512162E+01 -0.24943195985E+02 -0.21094965103E+02  0.32957658706E+02  0.00000000000E+00 0. -1.
         21    1    1    2  504  503  0.43642512162E+01  0.24943195985E+02 -0.93999965057E+02  0.97350927810E+02  0.00000000000E+00 0. -1.
<mgrwt>
<rscale>  2 0.25322119E+02</rscale>
<asrwt>0</asrwt>
<pdfrwt beam="1">  1       21 0.11702815E-02 0.25322119E+02</pdfrwt>
<pdfrwt beam="2">  1       21 0.18877190E-01 0.25322119E+02</pdfrwt>
<totfact> 0.55049976E+07</totfact>
</mgrwt>
</event>
<event>
 4    1  0.9374408E+003  0.4224403E+02  0.7546771E-02  0.1492318E+00
         21   -1    0    0  502  501  0.00000000000E+00  0.00000000000E+00  0.18005267380E+03  0.18005267380E+03  0.00000000000E+00 0. -1.
         21   -1    0    0  503  502 -0.00000000000E+00 -0.00000000000E+00 -0.13958131227E+02  0.13958131227E+02  0.00000000000E+00 0. -1.
         21    1    1    2  503  504 -0.31756272186E+02  0.27858529102E+02  0.13527956699E+03  0.14172198034E+03  0.00000000000E+00 0.  1.
         21    1    1    2  504  501  0.31756272186E+02 -0.27858529102E+02  0.30814975586E+02  0.52288824688E+02  0.00000000000E+00 0.  1.
<mgrwt>
<rscale>  2 0.42244035E+02</rscale>
<asrwt>0</asrwt>
<pdfrwt beam="1">  1       21 0.27700410E-01 0.42244035E+02</pdfrwt>
<pdfrwt beam="2">  1       21 0.21474049E-02 0.42244035E+02</pdfrwt>
<totfact> 0.11930633E+07</totfact>
</mgrwt>
</event>
<event>
 4    1  0.9374408E+003  0.2081460E+02  0.7546771E-02  0.1729598E+00
         21   -1    0    0  503  501  0.00000000000E+00  0.00000000000E+00  0.35555615105E+01  0.35555615105E+01  0.00000000000E+00 0.  1.
         21   -1    0    0  501  502 -0.00000000000E+00 -0.00000000000E+00 -0.35179809942E+03  0.35179809942E+03  0.00000000000E+00 0.  1.
         21    1    1    2  503  504 -0.16846673473E+01  0.20746311767E+02 -0.30473682845E+02  0.36903833163E+02  0.00000000000E+00 0. -1.
         21    1    1    2  504  502  0.16846673473E+01 -0.20746311767E+02 -0.31776885506E+03  0.31844982777E+03  0.00000000000E+00 0. -1.
<mgrwt>
<rscale>  2 0.20814600E+02</rscale>
<asrwt>0</asrwt>
<pdfrwt beam="1">  1       21 0.54700935E-03 0.20814600E+02</pdfrwt>
<pdfrwt beam="2">  1       21 0.54122796E-01 0.20814600E+02</pdfrwt>
<totfact> 0.23619327E+07</totfact>
</mgrwt>
</event>
<event>
 4    1  0.9374408E+003  0.3057927E+02  0.7546771E-02  0.1591772E+00
         21   -1    0    0  504  501  0.00000000000E+00  0.00000000000E+00  0.36312644702E+03  0.36312644702E+03  0.00000000000E+00 0. -1.
         21   -1    0    0  501  502 -0.00000000000E+00 -0.00000000000E+00 -0.68266415462E+01  0.68266415462E+01  0.00000000000E+00 0. -1.
         21    1    1    2  503  502  0.29732649883E+02  0.71457201920E+01  0.32172497297E+02  0.44386499845E+02  0.00000000000E+00 0. -1.
         21    1    1    2  504  503 -0.29732649883E+02 -0.71457201920E+01  0.32412730818E+03  0.32556658872E+03  0.00000000000E+00 0. -1.
<mgrwt>
<rscale>  2 0.30579271E+02</rscale>
<asrwt>0</asrwt>
<pdfrwt beam="1">  1       21 0.55865592E-01 0.30579271E+02</pdfrwt>
<pdfrwt beam="2">  1       21 0.10502528E-02 0.30579271E+02</pdfrwt>
<totfact> 0.89641429E+06</totfact>
</mgrwt>
</event>
<event>
 4    1  0.9374408E+003  0.5002938E+02  0.7546771E-02  0.1445183E+00
         21   -1    0    0  503  501  0.00000000000E+00  0.00000000000E+00  0.10720428810E+01  0.10720428810E+01  0.00000000000E+00 0. -1.
         21   -1    0    0  501  502 -0.00000000000E+00 -0.00000000000E+00 -0.29772949910E+04  0.29772949910E+04  0.00000000000E+00 0. -1.
         21    1    1    2  503  504  0.49490440093E+02 -0.73236376002E+01 -0.21799314368E+04  0.21805054479E+04  0.00000000000E+00 0.  1.
         21    1    1    2  504  502 -0.49490440093E+02  0.73236376002E+01 -0.79629151129E+03  0.79786158592E+03  0.00000000000E+00 0.  1.
<mgrwt>
<rscale>  2 0.50029385E+02</rscale>
<asrwt>0</asrwt>
<pdfrwt beam="1">  1       21 0.16493492E-03 0.50029385E+02</pdfrwt>
<pdfrwt beam="2">  1       21 0.45803081E+00 0.50029385E+02</pdfrwt>
<totfact> 0.29348247E+05</totfact>
</mgrwt>
</event>
<event>
 4    1  0.9374408E+003  0.3408838E+02  0.7546771E-02  0.1556848E+00
         21   -1    0    0  504  501  0.00000000000E+00  0.00000000000E+00  0.21117463830E+01  0.21117463830E+01  0.00000000000E+00 0.  1.
         21   -1    0    0  501  502 -0.00000000000E+00 -0.00000000000E+00 -0.64421688603E+03  0.64421688603E+03  0.00000000000E+00 0.  1.
         21    1    1    2  503  502  0.19165267763E+02  0.28190602141E+02 -0.44446614384E+03  0.44577143308E+03  0.00000000000E+00 0. -1.
         21    1    1    2  504  503 -0.19165267763E+02 -0.28190602141E+02 -0.19763899582E+03  0.20055719933E+03  0.00000000000E+00 0. -1.
<mgrwt>
<rscale>  2 0.34088378E+02</rscale>
<asrwt>0</asrwt>
<pdfrwt beam="1">  1       21 0.32488383E-03 0.34088378E+02</pdfrwt>
<pdfrwt beam="2">  1       21 0.99110361E-01 0.34088378E+02</pdfrwt>
<totfact> 0.15787858E+07</totfact>
</mgrwt>
</event>
<event>
 4    1  0.9374408E+003  0.2826009E+02  0.7546771E-02  0.1618158E+00
         21   -1    0    0  502  501  0.00000000000E+00  0.00000000000E+00  0.33573340830E+01  0.33573340830E+01  0.00000000000E+00 0. -1.
         21   -1    0    0  504  502 -0.00000000000E+00 -0.00000000000E+00 -0.27241710895E+03  0.27241710895E+03  0.00000000000E+00 0. -1.
         21    1    1    2  503  501 -0.15938521633E+02 -0.23336584485E+02 -0.85431354199E+02  0.89984159314E+02  0.00000000000E+00 0.  1.
         21    1    1    2  504  503  0.15938521633E+02  0.23336584485E+02 -0.18362842067E+03  0.18579028372E+03  0.00000000000E+00 0.  1.
<mgrwt>
<rscale>  2 0.28260089E+02</rscale>
<asrwt>0</asrwt>
<pdfrwt beam="1">  1       21 0.51651308E-03 0.28260089E+02</pdfrwt>
<pdfrwt beam="2">  1       21 0.41910313E-01 0.28260089E+02</pdfrwt>
<totfact> 0.45023182E+07</totfact>
</mgrwt>
</event>
<event>
 4    1  0.9374408E+003  0.3381054E+02  0.7546771E-02  0.1559424E+00
         21   -1    0    0  503  501  0.00000000000E+00  0.00000000000E+00  0.62414520774E+01  0.62414520774E+01  0.00000000000E+00 0.  1.
         21   -1    0    0  501  502 -0.00000000000E+00 -0.00000000000E+00 -0.26924231899E+03  0.26924231899E+03  0.00000000000E+00 0.  1.
         21    1    1    2  503  504 -0.17346646381E+02  0.29021479250E+02 -0.53613561973E+02  0.63384275857E+02  0.00000000000E+00 0.  1.
         21    1    1    2  504  502  0.17346646381E+02 -0.29021479250E+02 -0.20938730494E+03  0.21209949521E+03  0.00000000000E+00 0.  1.
<mgrwt>
<rscale>  2 0.33810537E+02</rscale>
<asrwt>0</asrwt>
<pdfrwt beam="1">  1       21 0.96022368E-03 0.33810537E+02</pdfrwt>
<pdfrwt beam="2">  1       21 0.41421883E-01 0.33810537E+02</pdfrwt>
<totfact> 0.18749163E+07</totfact>
</mgrwt>
</event>
<event>
 4    1  0.9374408E+003  0.4554069E+02  0.7546771E-02  0.1470994E+00
         21   -1    0    0  503  501  0.00000000000E+00  0.00000000000E+00  0.23107821112E+03  0.23107821112E+03  0.00000000000E+00 0. -1.
         21   -1    0    0  501  502 -0.00000000000E+00 -0.00000000000E+00 -0.21501231753E+02  0.21501231753E+02  0.00000000000E+00 0. -1.
         21    1    1    2  503  504  0.42812825595E+02 -0.15524716612E+02  0.20118126002E+03  0.20627131222E+03  0.00000000000E+00 0. -1.
         21    1    1    2  504  502 -0.42812825595E+02  0.15524716612E+02  0.83957193471E+01  0.46308130654E+02  0.00000000000E+00 0. -1.
<mgrwt>
<rscale>  2 0.45540695E+02</rscale>
<asrwt>0</asrwt>
<pdfrwt beam="1">  1       21 0.35550492E-01 0.45540695E+02</pdfrwt>
<pdfrwt beam="2">  1       21 0.33078820E-02 0.45540695E+02</pdfrwt>
<totfact> 0.37980048E+06</totfact>
</mgrwt>
</event>
<event>
 4    1  0.9374408E+003  0.2013087E+02  0.7546771E-02  0.1742738E+00
         21   -1    0    0  504  501  0.00000000000E+00  0.00000000000E+00  0.19292116330E+03  0.19292116330E+03  0.00000000000E+00 0.  1.
         21   -1    0    0  501  502 -0.00000000000E+00 -0.00000000000E+00 -0.53253618139E+01  0.53253618139E+01  0.00000000000E+00 0.  1.
         21    1    1    2  503  502 -0.18000167252E+02 -0.90136531681E+01  0.16663300704E+02  0.26132691305E+02  0.00000000000E+00 0.  1.
         21    1    1    2  504  503  0.18000167252E+02  0.90136531681E+01  0.17093250078E+03  0.17211383380E+03  0.00000000000E+00 0.  1.
<mgrwt>
<rscale>  2 0.20130871E+02</rscale>
<asrwt>0</asrwt>
<pdfrwt beam="1">  1       21 0.29680174E-01 0.20130871E+02</pdfrwt>
<pdfrwt beam="2">  1       21 0.81928658E-03 0.20130871E+02</pdfrwt>
<totfact> 0.39819707E+07</totfact>
</mgrwt>
</event>
<event>
 4    1  0.9374408E+003  0.2143845E+02  0.7546771E-02  0.1718149E+00
         21   -1    0    0  502  501  0.00000000000E+00  0.00000000000E+00  0.21229563528E+03  0.21229563528E+03  0.00000000000E+00 0.  1.
         21   -1    0    0  504  502 -0.00000000000E+00 -0.00000000000E+00 -0.50145719349E+01  0.50145719349E+01  0.00000000000E+00 0.  1.
         21    1    1    2  503  501 -0.59698337212E+01  0.20590487444E+02  0.21732278751E+02  0.30527021269E+02  0.00000000000E+00 0.  1.
         21    1    1    2  504  503  0.59698337212E+01 -0.20590487444E+02  0.18554878460E+03  0.18678318595E+03  0.00000000000E+00 0.  1.
<mgrwt>
<rscale>  2 0.21438449E+02</rscale>
<asrwt>0</asrwt>
<pdfrwt beam="1">  1       21 0.32660860E-01 0.21438449E+02</pdfrwt>
<pdfrwt beam="2">  1       21 0.77147277E-03 0.21438449E+02</pdfrwt>
<totfact> 0.37155350E+07</totfact>
</mgrwt>
</event>
<event>
 4    1  0.9374408E+003  0.3074075E+02  0.7546771E-02  0.1590042E+00
         21   -1    0    0  504  501  0.00000000000E+00  0.00000000000E+00  0.74007658543E+03  0.74007658543E+03  0.00000000000E+00 0.  1.
         21   -1    0    0  501  502 -0.00000000000E+00 -0.00000000000E+00 -0.25941424631E+01  0.25941424631E+01  0.00000000000E+00 0.  1.
         21    1    1    2  503  502  0.26993033879E+02 -0.14709520640E+02  0.10413230787E+03  0.10857500366E+03  0.00000000000E+00 0.  1.
         21    1    1    2  504  503 -0.26993033879E+02  0.14709520640E+02  0.63335013510E+03  0.63409572424E+03  0.00000000000E+00 0.  1.
<mgrwt>
<rscale>  2 0.30740753E+02</rscale>
<asrwt>0</asrwt>
<pdfrwt beam="1">  1       21 0.11385777E+00 0.30740753E+02</pdfrwt>
<pdfrwt beam="2">  1       21 0.39909943E-03 0.30740753E+02</pdfrwt>
<totfact> 0.84083433E+06</totfact>
</mgrwt>
</event>
<event>
 4    1  0.9374408E+003  0.2165858E+02  0.7546771E-02  0.1714224E+00
         21   -1    0    0  504  501  0.00000000000E+00  0.00000000000E+00  0.45344245843E+01  0.45344245843E+01  0.00000000000E+00 0.  1.
         21   -1    0    0  501  502 -0.00000000000E+00 -0.00000000000E+00 -0.11066002601E+03  0.11066002601E+03  0.00000000000E+00 0.  1.
         21    1    1    2  503  502 -0.83299468159E+01 -0.19992654639E+02 -0.67762933274E+02  0.71140068734E+02  0.00000000000E+00 0. -1.
         21    1    1    2  504  503  0.83299468159E+01  0.19992654639E+02 -0.38362668154E+02  0.44054381863E+02  0.00000000000E+00 0. -1.
<mgrwt>
<rscale>  2 0.21658584E+02</rscale>
<asrwt>0</asrwt>
<pdfrwt beam="1">  1       21 0.69760380E-03 0.21658584E+02</pdfrwt>
<pdfrwt beam="2">  1       21 0.17024619E-01 0.21658584E+02</pdfrwt>
<totfact> 0.13703474E+08</totfact>
</mgrwt>
</event>
<event>
 4    1  0.9374408E+003  0.4061708E+02  0.7546771E-02  0.1503719E+00
         21   -1    0    0  504  501  0.00000000000E+00  0.00000000000E+00  0.55158652763E+02  0.55158652763E+02  0.00000000000E+00 0.  1.
         21   -1    0    0  501  502 -0.00000000000E+00 -0.00000000000E+00 -0.36963775909E+02  0.36963775909E+02  0.00000000000E+00 0.  1.
         21    1    1    2  503  502 -0.20916475547E+02  0.34817353453E+02  0.29220079333E+02  0.50035588205E+02  0.00000000000E+00 0.  1.
         21    1    1    2  504  503  0.20916475547E+02 -0.34817353453E+02 -0.11025202479E+02  0.42086840467E+02  0.00000000000E+00 0.  1.
<mgrwt>
<rscale>  2 0.40617078E+02</rscale>
<asrwt>0</asrwt>
<pdfrwt beam="1">  1       21 0.84859466E-02 0.40617078E+02</pdfrwt>
<pdfrwt beam="2">  1       21 0.56867348E-02 0.40617078E+02</pdfrwt>
<totfact> 0.19768963E+07</totfact>
</mgrwt>
</event>
<event>
 4    1  0.9374408E+003  0.2055218E+02  0.7546771E-02  0.1734565E+00
         21   -1    0    0  504  501  0.00000000000E+00  0.00000000000E+00  0.57567227656E+01  0.57567227656E+01  0.00000000000E+00 0. -1.
         21   -1    0    0  501  502 -0.00000000000E+00 -0.00000000000E+00 -0.10498109247E+03  0.10498109247E+03  0.00000000000E+00 0. -1.
         21    1    1    2  503  502  0.10741800777E+02  0.17521579103E+02 -0.19230994698E+02  0.28146459373E+02  0.00000000000E+00 0.  1.
         21    1    1    2  504  503 -0.10741800777E+02 -0.17521579103E+02 -0.79993375003E+02  0.82591355858E+02  0.00000000000E+00 0.  1.
<mgrwt>
<rscale>  2 0.20552178E+02</rscale>
<asrwt>0</asrwt>
<pdfrwt beam="1">  1       21 0.88564970E-03 0.20552178E+02</pdfrwt>
<pdfrwt beam="2">  1       21 0.16150937E-01 0.20552178E+02</pdfrwt>
<totfact> 0.10354609E+08</totfact>
</mgrwt>
</event>
<event>
 4    1  0.9374408E+003  0.2652423E+02  0.7546771E-02  0.1640027E+00
         21   -1    0    0  502  501  0.00000000000E+00  0.00000000000E+00  0.10531641227E+01  0.10531641227E+01  0.00000000000E+00 0. -1.
         21   -1    0    0  504  502 -0.00000000000E+00 -0.00000000000E+00 -0.76939111942E+03  0.76939111942E+03  0.00000000000E+00 0. -1.
         21    1    1    2  503  501 -0.17372963394E+02  0.20042825363E+02 -0.52399717574E+03  0.52466806162E+03  0.00000000000E+00 0. -1.
         21    1    1    2  504  503  0.17372963394E+02 -0.20042825363E+02 -0.24434077956E+03  0.24577622192E+03  0.00000000000E+00 0. -1.
<mgrwt>
<rscale>  2 0.26524229E+02</rscale>
<asrwt>0</asrwt>
<pdfrwt beam="1">  1       21 0.16202496E-03 0.26524229E+02</pdfrwt>
<pdfrwt beam="2">  1       21 0.11836808E+00 0.26524229E+02</pdfrwt>
<totfact> 0.28130658E+07</totfact>
</mgrwt>
</event>
<event>
 4    1  0.9374408E+003  0.3010562E+02  0.7546771E-02  0.1596924E+00
         21   -1    0    0  503  501  0.00000000000E+00  0.00000000000E+00  0.78048597912E+02  0.78048597912E+02  0.00000000000E+00 0.  1.
         21   -1    0    0  501  502 -0.00000000000E+00 -0.00000000000E+00 -0.22443789177E+02  0.22443789177E+02  0.00000000000E+00 0.  1.
         21    1    1    2  503  504  0.17092151263E+02  0.24783197810E+02  0.62707818310E+02  0.69560182617E+02  0.00000000000E+00 0. -1.
         21    1    1    2  504  502 -0.17092151263E+02 -0.24783197810E+02 -0.71030095748E+01  0.30932204472E+02  0.00000000000E+00 0. -1.
<mgrwt>
<rscale>  2 0.30105623E+02</rscale>
<asrwt>0</asrwt>
<pdfrwt beam="1">  1       21 0.12007476E-01 0.30105623E+02</pdfrwt>
<pdfrwt beam="2">  1       21 0.34528907E-02 0.30105623E+02</pdfrwt>
<totfact> 0.23334903E+07</totfact>
</mgrwt>
</event>
<event>
 4    1  0.9374408E+003  0.2629511E+02  0.7546771E-02  0.1643068E+00
         21   -1    0    0  502  501  0.00000000000E+00  0.00000000000E+00  0.26096372973E+02  0.26096372973E+02  0.00000000000E+00 0.  1.
         21   -1    0    0  503  502 -0.00000000000E+00 -0.00000000000E+00 -0.30245620834E+02  0.30245620834E+02  0.00000000000E+00 0.  1.
         21    1    1    2  503  504  0.14592265547E+02  0.21874605360E+02  0.78451596314E+01  0.27440464703E+02  0.00000000000E+00 0.  1.
         21    1    1    2  504  501 -0.14592265547E+02 -0.21874605360E+02 -0.11994407493E+02  0.28901529104E+02  0.00000000000E+00 0.  1.
<mgrwt>
<rscale>  2 0.26295106E+02</rscale>
<asrwt>0</asrwt>
<pdfrwt beam="1">  1       21 0.40148266E-02 0.26295106E+02</pdfrwt>
<pdfrwt beam="2">  1       21 0.46531724E-02 0.26295106E+02</pdfrwt>
<totfact> 0.84378092E+07</totfact>
</mgrwt>
</event>
<event>
 4    1  0.9374408E+003  0.2133835E+02  0.7546771E-02  0.1719953E+00
         21   -1    0    0  504  501  0.00000000000E+00  0.00000000000E+00  0.24051999795E+03  0.24051999795E+03  0.00000000000E+00 0.  1.
         21   -1    0    0  501  502 -0.00000000000E+00 -0.00000000000E+00 -0.39166673032E+01  0.39166673032E+01  0.00000000000E+00 0.  1.
         21    1    1    2  503  502 -0.19691084315E+02  0.82211017172E+01  0.30452382568E+02  0.37184310119E+02  0.00000000000E+00 0. -1.
         21    1    1    2  504  503  0.19691084315E+02 -0.82211017172E+01  0.20615094808E+03  0.20725235513E+03  0.00000000000E+00 0. -1.
<mgrwt>
<rscale>  2 0.21338353E+02</rscale>
<asrwt>0</asrwt>
<pdfrwt beam="1">  1       21 0.37003065E-01 0.21338353E+02</pdfrwt>
<pdfrwt beam="2">  1       21 0.60256439E-03 0.21338353E+02</pdfrwt>
<totfact> 0.42525272E+07</totfact>
</mgrwt>
</event>
<event>
 4    1  0.9374408E+003  0.2407723E+02  0.7546771E-02  0.1674621E+00
         21   -1    0    0  504  501  0.00000000000E+00  0.00000000000E+00  0.52621701270E+02  0.52621701270E+02  0.00000000000E+00 0.  1.
         21   -1    0    0  501  502 -0.00000000000E+00 -0.00000000000E+00 -0.26370243608E+02  0.26370243608E+02  0.00000000000E+00 0.  1.
         21    1    1    2  503  502 -0.23810643500E+02 -0.35730161868E+01  0.43262811642E+02  0.49511453824E+02  0.00000000000E+00 0. -1.
         21    1    1    2  504  503  0.23810643500E+02  0.35730161868E+01 -0.17011353980E+02  0.29480491054E+02  0.00000000000E+00 0. -1.
<mgrwt>
<rscale>  2 0.24077234E+02</rscale>
<asrwt>0</asrwt>
<pdfrwt beam="1">  1       21 0.80956463E-02 0.24077234E+02</pdfrwt>
<pdfrwt beam="2">  1       21 0.40569606E-02 0.24077234E+02</pdfrwt>
<totfact> 0.33222915E+07</totfact>
</mgrwt>
</event>
<event>
 4    1  0.9374408E+003  0.3581313E+02  0.7546771E-02  0.1541496E+00
         21   -1    0    0  504  501  0.00000000000E+00  0.00000000000E+00  0.13868861087E+03  0.13868861087E+03  0.00000000000E+00 0. -1.
         21   -1    0    0  501  502 -0.00000000000E+00 -0.00000000000E+00 -0.16947967592E+02  0.16947967592E+02  0.00000000000E+00 0. -1.
         21    1    1    2  503  502  0.26347953967E+02  0.24256253910E+02  0.11332324559E+03  0.11884754319E+03  0.00000000000E+00 0. -1.
         21    1    1    2  504  503 -0.26347953967E+02 -0.24256253910E+02  0.84173976849E+01  0.36789035266E+02  0.00000000000E+00 0. -1.
<mgrwt>
<rscale>  2 0.35813134E+02</rscale>
<asrwt>0</asrwt>
<pdfrwt beam="1">  1       21 0.21336709E-01 0.35813134E+02</pdfrwt>
<pdfrwt beam="2">  1       21 0.26073797E-02 0.35813134E+02</pdfrwt>
<totfact> 0.13795821E+07</totfact>
</mgrwt>
</event>
<event>
 4    1  0.9374408E+003  0.2128796E+02  0.7546771E-02  0.1720865E+00
         21   -1    0    0  502  501  0.00000000000E+00  0.00000000000E+00  0.25245479870E+02  0.25245479870E+02  0.00000000000E+00 0.  1.
         21   -1    0    0  503  502 -0.00000000000E+00 -0.00000000000E+00 -0.24557082330E+02  0.24557082330E+02  0.00000000000E+00 0.  1.
         21    1    1    2  503  504  0.10894164842E+02  0.18289187699E+02 -0.12571295198E+02  0.24722756263E+02  0.00000000000E+00 0. -1.
         21    1    1    2  504  501 -0.10894164842E+02 -0.18289187699E+02  0.13259692738E+02  0.25079805936E+02  0.00000000000E+00 0. -1.
<mgrwt>
<rscale>  2 0.21287959E+02</rscale>
<asrwt>0</asrwt>
<pdfrwt beam="1">  1       21 0.38839200E-02 0.21287959E+02</pdfrwt>
<pdfrwt beam="2">  1       21 0.37780126E-02 0.21287959E+02</pdfrwt>
<totfact> 0.11646938E+08</totfact>
</mgrwt>
</event>
<event>
 4    1  0.9374408E+003  0.3545879E+02  0.7546771E-02  0.1544564E+00
         21   -1    0    0  502  501  0.00000000000E+00  0.00000000000E+00  0.17809211622E+03  0.17809211622E+03  0.00000000000E+00 0.  1.
         21   -1    0    0  504  502 -0.00000000000E+00 -0.00000000000E+00 -0.15294334519E+02  0.15294334519E+02  0.00000000000E+00 0.  1.
         21    1    1    2  503  501 -0.33350901821E+02  0.12043372506E+02  0.15234780097E+03  0.15641987704E+03  0.00000000000E+00 0.  1.
         21    1    1    2  504  503  0.33350901821E+02 -0.12043372506E+02  0.10449980732E+02  0.36966573697E+02  0.00000000000E+00 0.  1.
<mgrwt>
<rscale>  2 0.35458786E+02</rscale>
<asrwt>0</asrwt>
<pdfrwt beam="1">  1       21 0.27398786E-01 0.35458786E+02</pdfrwt>
<pdfrwt beam="2">  1       21 0.23529747E-02 0.35458786E+02</pdfrwt>
<totfact> 0.10296098E+07</totfact>
</mgrwt>
</event>
<event>
 4    1  0.9374408E+003  0.2189786E+02  0.7546771E-02  0.1710024E+00
         21   -1    0    0  502  501  0.00000000000E+00  0.00000000000E+00  0.11574943694E+02  0.11574943694E+02  0.00000000000E+00 0.  1.
         21   -1    0    0  503  502 -0.00000000000E+00 -0.00000000000E+00 -0.77561045290E+02  0.77561045290E+02  0.00000000000E+00 0.  1.
         21    1    1    2  503  504 -0.15273678756E+02  0.15691750495E+02 -0.25730665952E+01  0.22048513965E+02  0.00000000000E+00 0.  1.
         21    1    1    2  504  501  0.15273678756E+02 -0.15691750495E+02 -0.63413035002E+02  0.67087475019E+02  0.00000000000E+00 0.  1.
<mgrwt>
<rscale>  2 0.21897861E+02</rscale>
<asrwt>0</asrwt>
<pdfrwt beam="1">  1       21 0.17807605E-02 0.21897861E+02</pdfrwt>
<pdfrwt beam="2">  1       21 0.11932469E-01 0.21897861E+02</pdfrwt>
<totfact> 0.61266055E+07</totfact>
</mgrwt>
</event>
<event>
 4    1  0.9374408E+003  0.2208755E+02  0.7546771E-02  0.1706742E+00
         21   -1    0    0  504  501  0.00000000000E+00  0.00000000000E+00  0.81854157569E+01  0.81854157569E+01  0.00000000000E+00 0. -1.
         21   -1    0    0  501  502 -0.00000000000E+00 -0.00000000000E+00 -0.13117348835E+03  0.13117348835E+03  0.00000000000E+00 0. -1.
         21    1    1    2  503  502 -0.14812997029E+02 -0.16383982452E+02 -0.10024002259E+02  0.24255728875E+02  0.00000000000E+00 0. -1.
         21    1    1    2  504  503  0.14812997029E+02  0.16383982452E+02 -0.11296407033E+03  0.11510317523E+03  0.00000000000E+00 0. -1.
<mgrwt>
<rscale>  2 0.22087548E+02</rscale>
<asrwt>0</asrwt>
<pdfrwt beam="1">  1       21 0.12592949E-02 0.22087548E+02</pdfrwt>
<pdfrwt beam="2">  1       21 0.20180533E-01 0.22087548E+02</pdfrwt>
<totfact> 0.42413542E+07</totfact>
</mgrwt>
</event>
<event>
 4    1  0.9374408E+003  0.2264293E+02  0.7546771E-02  0.1697364E+00
         21   -1    0    0  502  501  0.00000000000E+00  0.00000000000E+00  0.21837221519E+03  0.21837221519E+03  0.00000000000E+00 0. -1.
         21   -1    0    0  504  502 -0.00000000000E+00 -0.00000000000E+00 -0.36411639199E+01  0.36411639199E+01  0.00000000000E+00 0. -1.
         21    1    1    2  503  501 -0.13684945831E+02 -0.18039526308E+02  0.41207386232E+02  0.47018623245E+02  0.00000000000E+00 0.  1.
         21    1    1    2  504  503  0.13684945831E+02  0.18039526308E+02  0.17352366504E+03  0.17499475586E+03  0.00000000000E+00 0.  1.
<mgrwt>
<rscale>  2 0.22642929E+02</rscale>
<asrwt>0</asrwt>
<pdfrwt beam="1">  1       21 0.33595715E-01 0.22642929E+02</pdfrwt>
<pdfrwt beam="2">  1       21 0.56017924E-03 0.22642929E+02</pdfrwt>
<totfact> 0.57468098E+07</totfact>
</mgrwt>
</event>
<event>
 4    1  0.9374408E+003  0.2082432E+02  0.7546771E-02  0.1729415E+00
         21   -1    0    0  503  501  0.00000000000E+00  0.00000000000E+00  0.98258741297E+02  0.98258741297E+02  0.00000000000E+00 0. -1.
         21   -1    0    0  501  502 -0.00000000000E+00 -0.00000000000E+00 -0.63595265498E+01  0.63595265498E+01  0.00000000000E+00 0. -1.
         21    1    1    2  503  504  0.19979761907E+02  0.58703916686E+01  0.17012588165E+02  0.26890156940E+02  0.00000000000E+00 0.  1.
         21    1    1    2  504  502 -0.19979761907E+02 -0.58703916686E+01  0.74886626582E+02  0.77728110906E+02  0.00000000000E+00 0.  1.
<mgrwt>
<rscale>  2 0.20824322E+02</rscale>
<asrwt>0</asrwt>
<pdfrwt beam="1">  1       21 0.15116728E-01 0.20824322E+02</pdfrwt>
<pdfrwt beam="2">  1       21 0.97838877E-03 0.20824322E+02</pdfrwt>
<totfact> 0.10024509E+08</totfact>
</mgrwt>
</event>
<event>
 4    1  0.9374408E+003  0.2510122E+02  0.7546771E-02  0.1659552E+00
         21   -1    0    0  503  501  0.00000000000E+00  0.00000000000E+00  0.26241931783E+03  0.26241931783E+03  0.00000000000E+00 0. -1.
         21   -1    0    0  501  502 -0.00000000000E+00 -0.00000000000E+00 -0.32461852607E+01  0.32461852607E+01  0.00000000000E+00 0. -1.
         21    1    1    2  503  504 -0.79091125775E+01 -0.23822614299E+02  0.19736511891E+03  0.19895492248E+03  0.00000000000E+00 0. -1.
         21    1    1    2  504  502  0.79091125775E+01  0.23822614299E+02  0.61808013650E+02  0.66710580609E+02  0.00000000000E+00 0. -1.
<mgrwt>
<rscale>  2 0.25101215E+02</rscale>
<asrwt>0</asrwt>
<pdfrwt beam="1">  1       21 0.40372186E-01 0.25101215E+02</pdfrwt>
<pdfrwt beam="2">  1       21 0.49941332E-03 0.25101215E+02</pdfrwt>
<totfact> 0.49529005E+07</totfact>
</mgrwt>
</event>
<event>
 4    1  0.9374408E+003  0.2699546E+02  0.7546771E-02  0.1633891E+00
         21   -1    0    0  502  501  0.00000000000E+00  0.00000000000E+00  0.40191074103E+03  0.40191074103E+03  0.00000000000E+00 0.  1.
         21   -1    0    0  504  502 -0.00000000000E+00 -0.00000000000E+00 -0.27681715441E+01  0.27681715441E+01  0.00000000000E+00 0.  1.
         21    1    1    2  503  501 -0.12243238807E+01  0.26967682617E+02  0.31841424357E+03  0.31955654489E+03  0.00000000000E+00 0.  1.
         21    1    1    2  504  503  0.12243238807E+01 -0.26967682617E+02  0.80728325915E+02  0.85122367682E+02  0.00000000000E+00 0.  1.
<mgrwt>
<rscale>  2 0.26995460E+02</rscale>
<asrwt>0</asrwt>
<pdfrwt beam="1">  1       21 0.61832375E-01 0.26995460E+02</pdfrwt>
<pdfrwt beam="2">  1       21 0.42587287E-03 0.26995460E+02</pdfrwt>
<totfact> 0.27648271E+07</totfact>
</mgrwt>
</event>
<event>
 4    1  0.9374408E+003  0.2884505E+02  0.7546771E-02  0.1611217E+00
         21   -1    0    0  504  501  0.00000000000E+00  0.00000000000E+00  0.11653277233E+03  0.11653277233E+03  0.00000000000E+00 0.  1.
         21   -1    0    0  501  502 -0.00000000000E+00 -0.00000000000E+00 -0.91570218689E+01  0.91570218689E+01  0.00000000000E+00 0.  1.
         21    1    1    2  503  502 -0.77861193378E+00 -0.28834542191E+02  0.83183296508E+02  0.88042591272E+02  0.00000000000E+00 0.  1.
         21    1    1    2  504  503  0.77861193378E+00  0.28834542191E+02  0.24192453950E+02  0.37647202924E+02  0.00000000000E+00 0.  1.
<mgrwt>
<rscale>  2 0.28845053E+02</rscale>
<asrwt>0</asrwt>
<pdfrwt beam="1">  1       21 0.17928118E-01 0.28845053E+02</pdfrwt>
<pdfrwt beam="2">  1       21 0.14087727E-02 0.28845053E+02</pdfrwt>
<totfact> 0.46802701E+07</totfact>
</mgrwt>
</event>
<event>
 4    1  0.9374408E+003  0.3159678E+02  0.7546771E-02  0.1581081E+00
         21   -1    0    0  502  501  0.00000000000E+00  0.00000000000E+00  0.12587388406E+04  0.12587388406E+04  0.00000000000E+00 0.  1.
         21   -1    0    0  503  502 -0.00000000000E+00 -0.00000000000E+00 -0.23225580050E+01  0.23225580050E+01  0.00000000000E+00 0.  1.
         21    1    1    2  503  504  0.30554180778E+02 -0.80497595169E+01  0.11654280206E+03  0.12075007786E+03  0.00000000000E+00 0.  1.
         21    1    1    2  504  501 -0.30554180778E+02  0.80497595169E+01  0.11398734806E+04  0.11403113208E+04  0.00000000000E+00 0.  1.
<mgrwt>
<rscale>  2 0.31596781E+02</rscale>
<asrwt>0</asrwt>
<pdfrwt beam="1">  1       21 0.19365158E+00 0.31596781E+02</pdfrwt>
<pdfrwt beam="2">  1       21 0.35731762E-03 0.31596781E+02</pdfrwt>
<totfact> 0.27454664E+06</totfact>
</mgrwt>
</event>
<event>
 4    1  0.9374408E+003  0.2432363E+02  0.7546771E-02  0.1670911E+00
         21   -1    0    0  503  501  0.00000000000E+00  0.00000000000E+00  0.42327691423E+02  0.42327691423E+02  0.00000000000E+00 0.  1.
         21   -1    0    0  501  502 -0.00000000000E+00 -0.00000000000E+00 -0.24834040011E+02  0.24834040011E+02  0.00000000000E+00 0.  1.
         21    1    1    2  503  504  0.25807492136E+01 -0.24186330335E+02 -0.13456204419E+02  0.27797630815E+02  0.00000000000E+00 0.  1.
         21    1    1    2  504  502 -0.25807492136E+01  0.24186330335E+02  0.30949855832E+02  0.39364100619E+02  0.00000000000E+00 0.  1.
<mgrwt>
<rscale>  2 0.24323627E+02</rscale>
<asrwt>0</asrwt>
<pdfrwt beam="1">  1       21 0.65119525E-02 0.24323627E+02</pdfrwt>
<pdfrwt beam="2">  1       21 0.38206215E-02 0.24323627E+02</pdfrwt>
<totfact> 0.52169970E+07</totfact>
</mgrwt>
</event>
<event>
 4    1  0.9374408E+003  0.2211766E+02  0.7546771E-02  0.1706225E+00
         21   -1    0    0  502  501  0.00000000000E+00  0.00000000000E+00  0.18756845606E+03  0.18756845606E+03  0.00000000000E+00 0.  1.
         21   -1    0    0  503  502 -0.00000000000E+00 -0.00000000000E+00 -0.42814224234E+01  0.42814224234E+01  0.00000000000E+00 0.  1.
         21    1    1    2  503  504 -0.18877613345E+02  0.11525040139E+02  0.31673830929E+02  0.38631883225E+02  0.00000000000E+00 0.  1.
         21    1    1    2  504  501  0.18877613345E+02 -0.11525040139E+02  0.15161320271E+03  0.15321799526E+03  0.00000000000E+00 0.  1.
<mgrwt>
<rscale>  2 0.22117659E+02</rscale>
<asrwt>0</asrwt>
<pdfrwt beam="1">  1       21 0.28856679E-01 0.22117659E+02</pdfrwt>
<pdfrwt beam="2">  1       21 0.65868052E-03 0.22117659E+02</pdfrwt>
<totfact> 0.59318142E+07</totfact>
</mgrwt>
</event>
<event>
 4    1  0.9374408E+003  0.2009050E+02  0.7546771E-02  0.1743534E+00
         21   -1    0    0  503  501  0.00000000000E+00  0.00000000000E+00  0.10108571827E+01  0.10108571827E+01  0.00000000000E+00 0. -1.
         21   -1    0    0  501  502 -0.00000000000E+00 -0.00000000000E+00 -0.13954876181E+04  0.13954876181E+04  0.00000000000E+00 0. -1.
         21    1    1    2  503  504  0.19268564417E+02  0.56877752616E+01 -0.10728249715E+03  0.10914743496E+03  0.00000000000E+00 0. -1.
         21    1    1    2  504  502 -0.19268564417E+02 -0.56877752616E+01 -0.12871942638E+04  0.12873510403E+04  0.00000000000E+00 0. -1.
<mgrwt>
<rscale>  2 0.20090504E+02</rscale>
<asrwt>0</asrwt>
<pdfrwt beam="1">  1       21 0.15551722E-03 0.20090504E+02</pdfrwt>
<pdfrwt beam="2">  1       21 0.21468940E+00 0.20090504E+02</pdfrwt>
<totfact> 0.67764849E+06</totfact>
</mgrwt>
</event>
<event>
 4    1  0.9374408E+003  0.3081444E+02  0.7546771E-02  0.1589257E+00
         21   -1    0    0  503  501  0.00000000000E+00  0.00000000000E+00  0.55744054665E+03  0.55744054665E+03  0.00000000000E+00 0.  1.
         21   -1    0    0  501  502 -0.00000000000E+00 -0.00000000000E+00 -0.19500267353E+01  0.19500267353E+01  0.00000000000E+00 0.  1.
         21    1    1    2  503  504 -0.23184184378E+02  0.20298356713E+02  0.37721887501E+03  0.37847537483E+03  0.00000000000E+00 0.  1.
         21    1    1    2  504  502  0.23184184378E+02 -0.20298356713E+02  0.17827164491E+03  0.18091519856E+03  0.00000000000E+00 0.  1.
<mgrwt>
<rscale>  2 0.30814440E+02</rscale>
<asrwt>0</asrwt>
<pdfrwt beam="1">  1       21 0.85759957E-01 0.30814440E+02</pdfrwt>
<pdfrwt beam="2">  1       21 0.30000456E-03 0.30814440E+02</pdfrwt>
<totfact> 0.23985647E+07</totfact>
</mgrwt>
</event>
<event>
 4    1  0.9374408E+003  0.4170457E+02  0.7546771E-02  0.1496030E+00
         21   -1    0    0  502  501  0.00000000000E+00  0.00000000000E+00  0.25944143269E+01  0.25944143269E+01  0.00000000000E+00 0. -1.
         21   -1    0    0  504  502 -0.00000000000E+00 -0.00000000000E+00 -0.75477983127E+03  0.75477983127E+03  0.00000000000E+00 0. -1.
         21    1    1    2  503  501  0.35480983180E+02  0.21917367045E+02 -0.50271604188E+03  0.50444295010E+03  0.00000000000E+00 0.  1.
         21    1    1    2  504  503 -0.35480983180E+02 -0.21917367045E+02 -0.24946937506E+03  0.25293129549E+03  0.00000000000E+00 0.  1.
<mgrwt>
<rscale>  2 0.41704570E+02</rscale>
<asrwt>0</asrwt>
<pdfrwt beam="1">  1       21 0.39914080E-03 0.41704570E+02</pdfrwt>
<pdfrwt beam="2">  1       21 0.11611993E+00 0.41704570E+02</pdfrwt>
<totfact> 0.83144653E+06</totfact>
</mgrwt>
</event>
<event>
 4    1  0.9374408E+003  0.3569799E+02  0.7546771E-02  0.1542488E+00
         21   -1    0    0  504  501  0.00000000000E+00  0.00000000000E+00  0.23718327594E+01  0.23718327594E+01  0.00000000000E+00 0. -1.
         21   -1    0    0  501  502 -0.00000000000E+00 -0.00000000000E+00 -0.60866319522E+03  0.60866319522E+03  0.00000000000E+00 0. -1.
         21    1    1    2  503  502 -0.72407123746E+01 -0.34955951364E+02 -0.40777060005E+03  0.40933019522E+03  0.00000000000E+00 0.  1.
         21    1    1    2  504  503  0.72407123746E+01  0.34955951364E+02 -0.19852076241E+03  0.20170483276E+03  0.00000000000E+00 0.  1.
<mgrwt>
<rscale>  2 0.35697989E+02</rscale>
<asrwt>0</asrwt>
<pdfrwt beam="1">  1       21 0.36489716E-03 0.35697989E+02</pdfrwt>
<pdfrwt beam="2">  1       21 0.93640540E-01 0.35697989E+02</pdfrwt>
<totfact> 0.15166166E+07</totfact>
</mgrwt>
</event>
<event>
 4    1  0.9374408E+003  0.2140463E+02  0.7546771E-02  0.1718757E+00
         21   -1    0    0  502  501  0.00000000000E+00  0.00000000000E+00  0.21630845256E+03  0.21630845256E+03  0.00000000000E+00 0.  1.
         21   -1    0    0  504  502 -0.00000000000E+00 -0.00000000000E+00 -0.24523074830E+01  0.24523074830E+01  0.00000000000E+00 0.  1.
         21    1    1    2  503  501 -0.19450894499E+01 -0.21316073757E+02  0.66547381419E+02  0.69905023762E+02  0.00000000000E+00 0.  1.
         21    1    1    2  504  503  0.19450894499E+01  0.21316073757E+02  0.14730876366E+03  0.14885573628E+03  0.00000000000E+00 0.  1.
<mgrwt>
<rscale>  2 0.21404634E+02</rscale>
<asrwt>0</asrwt>
<pdfrwt beam="1">  1       21 0.33278208E-01 0.21404634E+02</pdfrwt>
<pdfrwt beam="2">  1       21 0.37727825E-03 0.21404634E+02</pdfrwt>
<totfact> 0.10301596E+08</totfact>
</mgrwt>
</event>
<event>
 4    1  0.9374408E+003  0.2104722E+02  0.7546771E-02  0.1725271E+00
         21   -1    0    0  502  501  0.00000000000E+00  0.00000000000E+00  0.60824200258E+02  0.60824200258E+02  0.00000000000E+00 0.  1.
         21   -1    0    0  504  502 -0.00000000000E+00 -0.00000000000E+00 -0.15033571100E+02  0.15033571100E+02  0.00000000000E+00 0.  1.
         21    1    1    2  503  501 -0.19522879082E+01 -0.20956475967E+02 -0.43382589096E+01  0.21489667364E+02  0.00000000000E+00 0. -1.
         21    1    1    2  504  503  0.19522879082E+01  0.20956475967E+02  0.50128888068E+02  0.54368103995E+02  0.00000000000E+00 0. -1.
<mgrwt>
<rscale>  2 0.21047216E+02</rscale>
<asrwt>0</asrwt>
<pdfrwt beam="1">  1       21 0.93575691E-02 0.21047216E+02</pdfrwt>
<pdfrwt beam="2">  1       21 0.23128571E-02 0.21047216E+02</pdfrwt>
<totfact> 0.60740308E+07</totfact>
</mgrwt>
</event>
<event>
 4    1  0.9374408E+003  0.2098116E+02  0.7546771E-02  0.1726492E+00
         21   -1    0    0  503  501  0.00000000000E+00  0.00000000000E+00  0.67013859101E+02  0.67013859101E+02  0.00000000000E+00 0. -1.
         21   -1    0    0  501  502 -0.00000000000E+00 -0.00000000000E+00 -0.81478438634E+01  0.81478438634E+01  0.00000000000E+00 0. -1.
         21    1    1    2  503  504 -0.11030683875E+02 -0.17847498342E+02  0.12889605519E+02  0.24624197738E+02  0.00000000000E+00 0. -1.
         21    1    1    2  504  502  0.11030683875E+02  0.17847498342E+02  0.45976409719E+02  0.50537505226E+02  0.00000000000E+00 0. -1.
<mgrwt>
<rscale>  2 0.20981163E+02</rscale>
<asrwt>0</asrwt>
<pdfrwt beam="1">  1       21 0.10309824E-01 0.20981163E+02</pdfrwt>
<pdfrwt beam="2">  1       21 0.12535145E-02 0.20981163E+02</pdfrwt>
<totfact> 0.13137153E+08</totfact>
</mgrwt>
</event>
<event>
 4    1  0.9374408E+003  0.3195098E+02  0.7546771E-02  0.1577473E+00
         21   -1    0    0  504  501  0.00000000000E+00  0.00000000000E+00  0.11617112758E+03  0.11617112758E+03  0.00000000000E+00 0. -1.
         21   -1    0    0  501  502 -0.00000000000E+00 -0.00000000000E+00 -0.19829877442E+02  0.19829877442E+02  0.00000000000E+00 0. -1.
         21    1    1    2  503  502 -0.23325809841E+02  0.21835105744E+02  0.98914246732E+02  0.10394658943E+03  0.00000000000E+00 0. -1.
         21    1    1    2  504  503  0.23325809841E+02 -0.21835105744E+02 -0.25729965928E+01  0.32054415594E+02  0.00000000000E+00 0. -1.
<mgrwt>
<rscale>  2 0.31950982E+02</rscale>
<asrwt>0</asrwt>
<pdfrwt beam="1">  1       21 0.17872481E-01 0.31950982E+02</pdfrwt>
<pdfrwt beam="2">  1       21 0.30507504E-02 0.31950982E+02</pdfrwt>
<totfact> 0.14464806E+07</totfact>
</mgrwt>
</event>
<event>
 4    1  0.9374408E+003  0.2019990E+02  0.7546771E-02  0.1741382E+00
         21   -1    0    0  502  501  0.00000000000E+00  0.00000000000E+00  0.28852064387E+02  0.28852064387E+02  0.00000000000E+00 0.  1.
         21   -1    0    0  503  502 -0.00000000000E+00 -0.00000000000E+00 -0.16731205172E+02  0.16731205172E+02  0.00000000000E+00 0.  1.
         21    1    1    2  503  504 -0.12146747817E+02  0.16139773742E+02 -0.29049021256E+01  0.20407700393E+02  0.00000000000E+00 0.  1.
         21    1    1    2  504  501  0.12146747817E+02 -0.16139773742E+02  0.15025761340E+02  0.25175569166E+02  0.00000000000E+00 0.  1.
<mgrwt>
<rscale>  2 0.20199896E+02</rscale>
<asrwt>0</asrwt>
<pdfrwt beam="1">  1       21 0.44387791E-02 0.20199896E+02</pdfrwt>
<pdfrwt beam="2">  1       21 0.25740316E-02 0.20199896E+02</pdfrwt>
<totfact> 0.16861507E+08</totfact>
</mgrwt>
</event>
<event>
 4    1  0.9374408E+003  0.2063963E+02  0.7546771E-02  0.1732899E+00
         21   -1    0    0  502  501  0.00000000000E+00  0.00000000000E+00  0.59479009414E+02  0.59479009414E+02  0.00000000000E+00 0. -1.
         21   -1    0    0  504  502 -0.00000000000E+00 -0.00000000000E+00 -0.97803903559E+01  0.97803903559E+01  0.00000000000E+00 0. -1.
         21    1    1    2  503  501 -0.83998653798E+01 -0.18853026531E+02  0.42766912407E+02  0.47486873393E+02  0.00000000000E+00 0. -1.
         21    1    1    2  504  503  0.83998653798E+01  0.18853026531E+02  0.69317066512E+01  0.21772526378E+02  0.00000000000E+00 0. -1.
<mgrwt>
<rscale>  2 0.20639631E+02</rscale>
<asrwt>0</asrwt>
<pdfrwt beam="1">  1       21 0.91506167E-02 0.20639631E+02</pdfrwt>
<pdfrwt beam="2">  1       21 0.15046755E-02 0.20639631E+02</pdfrwt>
<totfact> 0.12071062E+08</totfact>
</mgrwt>
</event>
<event>
 4    1  0.9374408E+003  0.2544003E+02  0.7546771E-02  0.1654761E+00
         21   -1    0    0  502  501  0.00000000000E+00  0.00000000000E+00  0.56477851689E+02  0.56477851689E+02  0.00000000000E+00 0.  1.
         21   -1    0    0  503  502 -0.00000000000E+00 -0.00000000000E+00 -0.12191874667E+02  0.12191874667E+02  0.00000000000E+00 0.  1.
         21    1    1    2  503  504 -0.25397729563E+02  0.14664054585E+01  0.13726428972E+02  0.28906917239E+02  0.00000000000E+00 0.  1.
         21    1    1    2  504  501  0.25397729563E+02 -0.14664054585E+01  0.30559548049E+02  0.39762809117E+02  0.00000000000E+00 0.  1.
<mgrwt>
<rscale>  2 0.25440028E+02</rscale>
<asrwt>0</asrwt>
<pdfrwt beam="1">  1       21 0.86889001E-02 0.25440028E+02</pdfrwt>
<pdfrwt beam="2">  1       21 0.18756731E-02 0.25440028E+02</pdfrwt>
<totfact> 0.99693349E+07</totfact>
</mgrwt>
</event>
<event>
 4    1  0.9374408E+003  0.2164149E+02  0.7546771E-02  0.1714527E+00
         21   -1    0    0  502  501  0.00000000000E+00  0.00000000000E+00  0.46880936720E+02  0.46880936720E+02  0.00000000000E+00 0.  1.
         21   -1    0    0  504  502 -0.00000000000E+00 -0.00000000000E+00 -0.25219636740E+02  0.25219636740E+02  0.00000000000E+00 0.  1.
         21    1    1    2  503  501  0.14258823385E+01  0.21594461358E+02  0.38844966029E+02  0.44466676147E+02  0.00000000000E+00 0. -1.
         21    1    1    2  504  503 -0.14258823385E+01 -0.21594461358E+02 -0.17183666048E+02  0.27633897312E+02  0.00000000000E+00 0. -1.
<mgrwt>
<rscale>  2 0.21641486E+02</rscale>
<asrwt>0</asrwt>
<pdfrwt beam="1">  1       21 0.72124518E-02 0.21641486E+02</pdfrwt>
<pdfrwt beam="2">  1       21 0.38799441E-02 0.21641486E+02</pdfrwt>
<totfact> 0.41880186E+07</totfact>
</mgrwt>
</event>
<event>
 4    1  0.9374408E+003  0.2028582E+02  0.7546771E-02  0.1739703E+00
         21   -1    0    0  503  501  0.00000000000E+00  0.00000000000E+00  0.35200077400E+01  0.35200077400E+01  0.00000000000E+00 0.  1.
         21   -1    0    0  501  502 -0.00000000000E+00 -0.00000000000E+00 -0.21403722607E+03  0.21403722607E+03  0.00000000000E+00 0.  1.
         21    1    1    2  503  504  0.16034887182E+02  0.12425648030E+02 -0.17853694080E+03  0.17968570774E+03  0.00000000000E+00 0. -1.
         21    1    1    2  504  502 -0.16034887182E+02 -0.12425648030E+02 -0.31980277527E+02  0.37871526066E+02  0.00000000000E+00 0. -1.
<mgrwt>
<rscale>  2 0.20285816E+02</rscale>
<asrwt>0</asrwt>
<pdfrwt beam="1">  1       21 0.54153943E-03 0.20285816E+02</pdfrwt>
<pdfrwt beam="2">  1       21 0.32928818E-01 0.20285816E+02</pdfrwt>
<totfact> 0.60940225E+07</totfact>
</mgrwt>
</event>
<event>
 4    1  0.9374408E+003  0.3296157E+02  0.7546771E-02  0.1567485E+00
         21   -1    0    0  503  501  0.00000000000E+00  0.00000000000E+00  0.20914011964E+02  0.20914011964E+02  0.00000000000E+00 0.  1.
         21   -1    0    0  501  502 -0.00000000000E+00 -0.00000000000E+00 -0.95589041255E+02  0.95589041255E+02  0.00000000000E+00 0.  1.
         21    1    1    2  503  504 -0.22387627266E+02  0.24192130464E+02 -0.76696610694E+02  0.83479549129E+02  0.00000000000E+00 0. -1.
         21    1    1    2  504  502  0.22387627266E+02 -0.24192130464E+02  0.20215814028E+01  0.33023504089E+02  0.00000000000E+00 0. -1.
<mgrwt>
<rscale>  2 0.32961569E+02</rscale>
<asrwt>0</asrwt>
<pdfrwt beam="1">  1       21 0.32175404E-02 0.32961569E+02</pdfrwt>
<pdfrwt beam="2">  1       21 0.14706006E-01 0.32961569E+02</pdfrwt>
<totfact> 0.18760213E+07</totfact>
</mgrwt>
</event>
<event>
 4    1  0.9374408E+003  0.2607662E+02  0.7546771E-02  0.1646003E+00
         21   -1    0    0  502  501  0.00000000000E+00  0.00000000000E+00  0.38609735681E+02  0.38609735681E+02  0.00000000000E+00 0. -1.
         21   -1    0    0  504  502 -0.00000000000E+00 -0.00000000000E+00 -0.22598638104E+02  0.22598638104E+02  0.00000000000E+00 0. -1.
         21    1    1    2  503  501 -0.21111512980E+02 -0.15306661138E+02 -0.63708152499E+01  0.26843567990E+02  0.00000000000E+00 0. -1.
         21    1    1    2  504  503  0.21111512980E+02  0.15306661138E+02  0.22381912827E+02  0.34364805795E+02  0.00000000000E+00 0. -1.
<mgrwt>
<rscale>  2 0.26076615E+02</rscale>
<asrwt>0</asrwt>
<pdfrwt beam="1">  1       21 0.59399593E-02 0.26076615E+02</pdfrwt>
<pdfrwt beam="2">  1       21 0.34767136E-02 0.26076615E+02</pdfrwt>
<totfact> 0.71436212E+07</totfact>
</mgrwt>
</event>
<event>
 4    1  0.9374408E+003  0.2164994E+02  0.7546771E-02  0.1714377E+00
         21   -1    0    0  502  501  0.00000000000E+00  0.00000000000E+00  0.45111650920E+03  0.45111650920E+03  0.00000000000E+00 0.  1.
         21   -1    0    0  504  502 -0.00000000000E+00 -0.00000000000E+00 -0.16892407817E+01  0.16892407817E+01  0.00000000000E+00 0.  1.
         21    1    1    2  503  501 -0.19593037554E+02  0.92104798249E+01  0.36517789993E+03  0.36581910647E+03  0.00000000000E+00 0.  1.
         21    1    1    2  504  503  0.19593037554E+02 -0.92104798249E+01  0.84249368482E+02  0.86986643508E+02  0.00000000000E+00 0.  1.
<mgrwt>
<rscale>  2 0.21649944E+02</rscale>
<asrwt>0</asrwt>
<pdfrwt beam="1">  1       21 0.69402444E-01 0.21649944E+02</pdfrwt>
<pdfrwt beam="2">  1       21 0.25988356E-03 0.21649944E+02</pdfrwt>
<totfact> 0.42993717E+07</totfact>
</mgrwt>
</event>
<event>
 4    1  0.9374408E+003  0.2813915E+02  0.7546771E-02  0.1619618E+00
         21   -1    0    0  502  501  0.00000000000E+00  0.00000000000E+00  0.10039341469E+02  0.10039341469E+02  0.00000000000E+00 0.  1.
         21   -1    0    0  503  502 -0.00000000000E+00 -0.00000000000E+00 -0.92626249075E+02  0.92626249075E+02  0.00000000000E+00 0.  1.
         21    1    1    2  503  504  0.26680107431E+02 -0.89433452399E+01 -0.21511726137E+02  0.35419852033E+02  0.00000000000E+00 0.  1.
         21    1    1    2  504  501 -0.26680107431E+02  0.89433452399E+01 -0.61075181468E+02  0.67245738511E+02  0.00000000000E+00 0.  1.
<mgrwt>
<rscale>  2 0.28139146E+02</rscale>
<asrwt>0</asrwt>
<pdfrwt beam="1">  1       21 0.15445141E-02 0.28139146E+02</pdfrwt>
<pdfrwt beam="2">  1       21 0.14250192E-01 0.28139146E+02</pdfrwt>
<totfact> 0.60088633E+07</totfact>
</mgrwt>
</event>
<event>
 4    1  0.9374408E+003  0.3446427E+02  0.7546771E-02  0.1553410E+00
         21   -1    0    0  502  501  0.00000000000E+00  0.00000000000E+00  0.23776875986E+02  0.23776875986E+02  0.00000000000E+00 0. -1.
         21   -1    0    0  503  502 -0.00000000000E+00 -0.00000000000E+00 -0.64265902059E+02  0.64265902059E+02  0.00000000000E+00 0. -1.
         21    1    1    2  503  504  0.33262270084E+02 -0.90226070180E+01  0.52848363245E+00  0.34468323769E+02  0.00000000000E+00 0. -1.
         21    1    1    2  504  501 -0.33262270084E+02  0.90226070180E+01 -0.41017509705E+02  0.53574454276E+02  0.00000000000E+00 0. -1.
<mgrwt>
<rscale>  2 0.34464272E+02</rscale>
<asrwt>0</asrwt>
<pdfrwt beam="1">  1       21 0.36579810E-02 0.34464272E+02</pdfrwt>
<pdfrwt beam="2">  1       21 0.98870617E-02 0.34464272E+02</pdfrwt>
<totfact> 0.30315190E+07</totfact>
</mgrwt>
</event>
<event>
 4    1  0.9374408E+003  0.2463625E+02  0.7546771E-02  0.1666282E+00
         21   -1    0    0  502  501  0.00000000000E+00  0.00000000000E+00  0.29301234165E+03  0.29301234165E+03  0.00000000000E+00 0.  1.
         21   -1    0    0  504  502 -0.00000000000E+00 -0.00000000000E+00 -0.28951665921E+01  0.28951665921E+01  0.00000000000E+00 0.  1.
         21    1    1    2  503  501  0.19641752371E+02  0.14870985846E+02  0.22397953574E+03  0.22533037320E+03  0.00000000000E+00 0.  1.
         21    1    1    2  504  503 -0.19641752371E+02 -0.14870985846E+02  0.66137639326E+02  0.70577135050E+02  0.00000000000E+00 0.  1.
<mgrwt>
<rscale>  2 0.24636247E+02</rscale>
<asrwt>0</asrwt>
<pdfrwt beam="1">  1       21 0.45078799E-01 0.24636247E+02</pdfrwt>
<pdfrwt beam="2">  1       21 0.44541047E-03 0.24636247E+02</pdfrwt>
<totfact> 0.47326435E+07</totfact>
</mgrwt>
</event>
<event>
 4    1  0.9374408E+003  0.2899620E+02  0.7546771E-02  0.1609457E+00
         21   -1    0    0  502  501  0.00000000000E+00  0.00000000000E+00  0.31315629590E+01  0.31315629590E+01  0.00000000000E+00 0. -1.
         21   -1    0    0  503  502 -0.00000000000E+00 -0.00000000000E+00 -0.37024214940E+03  0.37024214940E+03  0.00000000000E+00 0. -1.
         21    1    1    2  503  504 -0.16760891581E+02  0.23661192811E+02 -0.28142584074E+03  0.28291568243E+03  0.00000000000E+00 0. -1.
         21    1    1    2  504  501  0.16760891581E+02 -0.23661192811E+02 -0.85684745710E+02  0.90458029932E+02  0.00000000000E+00 0. -1.
<mgrwt>
<rscale>  2 0.28996199E+02</rscale>
<asrwt>0</asrwt>
<pdfrwt beam="1">  1       21 0.48177895E-03 0.28996199E+02</pdfrwt>
<pdfrwt beam="2">  1       21 0.56960327E-01 0.28996199E+02</pdfrwt>
<totfact> 0.27539660E+07</totfact>
</mgrwt>
</event>
<event>
 4    1  0.9374408E+003  0.3006119E+02  0.7546771E-02  0.1597413E+00
         21   -1    0    0  502  501  0.00000000000E+00  0.00000000000E+00  0.22472004325E+04  0.22472004325E+04  0.00000000000E+00 0. -1.
         21   -1    0    0  503  502 -0.00000000000E+00 -0.00000000000E+00 -0.85816693080E+00  0.85816693080E+00  0.00000000000E+00 0. -1.
         21    1    1    2  503  504  0.26074045171E+02 -0.14960590461E+02  0.19425598396E+04  0.19427924247E+04  0.00000000000E+00 0.  1.
         21    1    1    2  504  501 -0.26074045171E+02  0.14960590461E+02  0.30378242593E+03  0.30526617468E+03  0.00000000000E+00 0.  1.
<mgrwt>
<rscale>  2 0.30061189E+02</rscale>
<asrwt>0</asrwt>
<pdfrwt beam="1">  1       21 0.34571843E+00 0.30061189E+02</pdfrwt>
<pdfrwt beam="2">  1       21 0.13202748E-03 0.30061189E+02</pdfrwt>
<totfact> 0.19179330E+06</totfact>
</mgrwt>
</event>
<event>
 4    1  0.9374408E+003  0.4109164E+02  0.7546771E-02  0.1500328E+00
         21   -1    0    0  502  501  0.00000000000E+00  0.00000000000E+00  0.23723328647E+03  0.23723328647E+03  0.00000000000E+00 0. -1.
         21   -1    0    0  503  502 -0.00000000000E+00 -0.00000000000E+00 -0.10191444720E+02  0.10191444720E+02  0.00000000000E+00 0. -1.
         21    1    1    2  503  504  0.18461611456E+02  0.36710918133E+02  0.45578833302E+02  0.61367358204E+02  0.00000000000E+00 0.  1.
         21    1    1    2  504  501 -0.18461611456E+02 -0.36710918133E+02  0.18146300845E+03  0.18605737299E+03  0.00000000000E+00 0.  1.
<mgrwt>
<rscale>  2 0.41091637E+02</rscale>
<asrwt>0</asrwt>
<pdfrwt beam="1">  1       21 0.36497425E-01 0.41091637E+02</pdfrwt>
<pdfrwt beam="2">  1       21 0.15679147E-02 0.41091637E+02</pdfrwt>
<totfact> 0.11578241E+07</totfact>
</mgrwt>
</event>
<event>
 4    1  0.9374408E+003  0.2423985E+02  0.7546771E-02  0.1672166E+00
         21   -1    0    0  504  501  0.00000000000E+00  0.00000000000E+00  0.80702403634E+02  0.80702403634E+02  0.00000000000E+00 0.  1.
         21   -1    0    0  501  502 -0.00000000000E+00 -0.00000000000E+00 -0.21731468696E+02  0.21731468696E+02  0.00000000000E+00 0.  1.
         21    1    1    2  503  502 -0.33843888172E+01 -0.24002420871E+02  0.71250658653E+02  0.75261056688E+02  0.00000000000E+00 0. -1.
         21    1    1    2  504  503  0.33843888172E+01  0.24002420871E+02 -0.12279723715E+02  0.27172815641E+02  0.00000000000E+00 0. -1.
<mgrwt>
<rscale>  2 0.24239849E+02</rscale>
<asrwt>0</asrwt>
<pdfrwt beam="1">  1       21 0.12415754E-01 0.24239849E+02</pdfrwt>
<pdfrwt beam="2">  1       21 0.33433029E-02 0.24239849E+02</pdfrwt>
<totfact> 0.22199965E+07</totfact>
</mgrwt>
</event>
<event>
 4    1  0.9374408E+003  0.2581895E+02  0.7546771E-02  0.1649510E+00
         21   -1    0    0  502  501  0.00000000000E+00  0.00000000000E+00  0.46120803313E+01  0.46120803313E+01  0.00000000000E+00 0. -1.
         21   -1    0    0  503  502 -0.00000000000E+00 -0.00000000000E+00 -0.23911923799E+03  0.23911923799E+03  0.00000000000E+00 0. -1.
         21    1    1    2  503  504  0.46107022900E+01  0.25403925036E+02 -0.19389755297E+03  0.19560899527E+03  0.00000000000E+00 0.  1.
         21    1    1    2  504  501 -0.46107022900E+01 -0.25403925036E+02 -0.40609604687E+02  0.48122323050E+02  0.00000000000E+00 0.  1.
<mgrwt>
<rscale>  2 0.25818946E+02</rscale>
<asrwt>0</asrwt>
<pdfrwt beam="1">  1       21 0.70955111E-03 0.25818946E+02</pdfrwt>
<pdfrwt beam="2">  1       21 0.36787560E-01 0.25818946E+02</pdfrwt>
<totfact> 0.35223967E+07</totfact>
</mgrwt>
</event>
<event>
 4    1  0.9374408E+003  0.2420457E+02  0.7546771E-02  0.1672697E+00
         21   -1    0    0  504  501  0.00000000000E+00  0.00000000000E+00  0.64302680616E+01  0.64302680616E+01  0.00000000000E+00 0.  1.
         21   -1    0    0  501  502 -0.00000000000E+00 -0.00000000000E+00 -0.15065569567E+03  0.15065569567E+03  0.00000000000E+00 0.  1.
         21    1    1    2  503  502 -0.24200554272E+02 -0.44070740281E+00 -0.22733954233E+02  0.33206832507E+02  0.00000000000E+00 0. -1.
         21    1    1    2  504  503  0.24200554272E+02  0.44070740281E+00 -0.12149147338E+03  0.12387913123E+03  0.00000000000E+00 0. -1.
<mgrwt>
<rscale>  2 0.24204567E+02</rscale>
<asrwt>0</asrwt>
<pdfrwt beam="1">  1       21 0.98927212E-03 0.24204567E+02</pdfrwt>
<pdfrwt beam="2">  1       21 0.23177797E-01 0.24204567E+02</pdfrwt>
<totfact> 0.48927029E+07</totfact>
</mgrwt>
</event>
<event>
 4    1  0.9374408E+003  0.2735191E+02  0.7546771E-02  0.1629351E+00
         21   -1    0    0  502  501  0.00000000000E+00  0.00000000000E+00  0.78263536571E+03  0.78263536571E+03  0.00000000000E+00 0. -1.
         21   -1    0    0  504  502 -0.00000000000E+00 -0.00000000000E+00 -0.30714540560E+01  0.30714540560E+01  0.00000000000E+00 0. -1.
         21    1    1    2  503  501  0.41791765853E+01  0.27030753225E+02  0.63742775155E+02  0.69363308177E+02  0.00000000000E+00 0. -1.
         21    1    1    2  504  503 -0.41791765853E+01 -0.27030753225E+02  0.71582113650E+03  0.71634351159E+03  0.00000000000E+00 0. -1.
<mgrwt>
<rscale>  2 0.27351913E+02</rscale>
<asrwt>0</asrwt>
<pdfrwt beam="1">  1       21 0.12040528E+00 0.27351913E+02</pdfrwt>
<pdfrwt beam="2">  1       21 0.47253202E-03 0.27351913E+02</pdfrwt>
<totfact> 0.56827158E+06</totfact>
</mgrwt>
</event>
<event>
 4    1  0.9374408E+003  0.2263554E+02  0.7546771E-02  0.1697487E+00
         21   -1    0    0  504  501  0.00000000000E+00  0.00000000000E+00  0.89813821622E+03  0.89813821622E+03  0.00000000000E+00 0. -1.
         21   -1    0    0  501  502 -0.00000000000E+00 -0.00000000000E+00 -0.17092428376E+01  0.17092428376E+01  0.00000000000E+00 0. -1.
         21    1    1    2  503  502  0.16544897665E+02 -0.15447779844E+02  0.81545801925E+03  0.81577211812E+03  0.00000000000E+00 0.  1.
         21    1    1    2  504  503 -0.16544897665E+02  0.15447779844E+02  0.80970954129E+02  0.84075340936E+02  0.00000000000E+00 0.  1.
<mgrwt>
<rscale>  2 0.22635537E+02</rscale>
<asrwt>0</asrwt>
<pdfrwt beam="1">  1       21 0.13817473E+00 0.22635537E+02</pdfrwt>
<pdfrwt beam="2">  1       21 0.26296115E-03 0.22635537E+02</pdfrwt>
<totfact> 0.95215556E+06</totfact>
</mgrwt>
</event>
<event>
 4    1  0.9374408E+003  0.2238079E+02  0.7546771E-02  0.1701748E+00
         21   -1    0    0  502  501  0.00000000000E+00  0.00000000000E+00  0.88937814738E+02  0.88937814738E+02  0.00000000000E+00 0. -1.
         21   -1    0    0  503  502 -0.00000000000E+00 -0.00000000000E+00 -0.12725947204E+02  0.12725947204E+02  0.00000000000E+00 0. -1.
         21    1    1    2  503  504  0.17229198225E+02 -0.14284769237E+02  0.15396023396E+00  0.22381322735E+02  0.00000000000E+00 0. -1.
         21    1    1    2  504  501 -0.17229198225E+02  0.14284769237E+02  0.76057907300E+02  0.79282439206E+02  0.00000000000E+00 0. -1.
<mgrwt>
<rscale>  2 0.22380793E+02</rscale>
<asrwt>0</asrwt>
<pdfrwt beam="1">  1       21 0.13682740E-01 0.22380793E+02</pdfrwt>
<pdfrwt beam="2">  1       21 0.19578381E-02 0.22380793E+02</pdfrwt>
<totfact> 0.42356965E+07</totfact>
</mgrwt>
</event>
<event>
 4    1  0.9374408E+003  0.2592539E+02  0.7546771E-02  0.1648055E+00
         21   -1    0    0  503  501  0.00000000000E+00  0.00000000000E+00  0.35650300006E+03  0.35650300006E+03  0.00000000000E+00 0. -1.
         21   -1    0    0  501  502 -0.00000000000E+00 -0.00000000000E+00 -0.63316136895E+01  0.63316136895E+01  0.00000000000E+00 0. -1.
         21    1    1    2  503  504  0.25871741522E+02  0.16670008780E+01  0.23058918593E+02  0.34696392147E+02  0.00000000000E+00 0.  1.
         21    1    1    2  504  502 -0.25871741522E+02 -0.16670008780E+01  0.32711246777E+03  0.32813822160E+03  0.00000000000E+00 0.  1.
<mgrwt>
<rscale>  2 0.25925391E+02</rscale>
<asrwt>0</asrwt>
<pdfrwt beam="1">  1       21 0.54846600E-01 0.25925391E+02</pdfrwt>
<pdfrwt beam="2">  1       21 0.97409470E-03 0.25925391E+02</pdfrwt>
<totfact> 0.10158457E+07</totfact>
</mgrwt>
</event>
<event>
 4    1  0.9374408E+003  0.2042134E+02  0.7546771E-02  0.1737077E+00
         21   -1    0    0  504  501  0.00000000000E+00  0.00000000000E+00  0.36399953951E+03  0.36399953951E+03  0.00000000000E+00 0. -1.
         21   -1    0    0  501  502 -0.00000000000E+00 -0.00000000000E+00 -0.20027121607E+01  0.20027121607E+01  0.00000000000E+00 0. -1.
         21    1    1    2  503  502  0.55850724755E+01  0.19642765111E+02  0.30071107513E+03  0.30140368605E+03  0.00000000000E+00 0. -1.
         21    1    1    2  504  503 -0.55850724755E+01 -0.19642765111E+02  0.61285752214E+02  0.64598565620E+02  0.00000000000E+00 0. -1.
<mgrwt>
<rscale>  2 0.20421343E+02</rscale>
<asrwt>0</asrwt>
<pdfrwt beam="1">  1       21 0.55999877E-01 0.20421343E+02</pdfrwt>
<pdfrwt beam="2">  1       21 0.30810985E-03 0.20421343E+02</pdfrwt>
<totfact> 0.50916335E+07</totfact>
</mgrwt>
</event>
<event>
 4    1  0.9374408E+003  0.2061189E+02  0.7546771E-02  0.1733427E+00
         21   -1    0    0  503  501  0.00000000000E+00  0.00000000000E+00  0.85556786845E+01  0.85556786845E+01  0.00000000000E+00 0.  1.
         21   -1    0    0  501  502 -0.00000000000E+00 -0.00000000000E+00 -0.12401036386E+03  0.12401036386E+03  0.00000000000E+00 0.  1.
         21    1    1    2  503  504  0.35566866465E+01  0.20302709884E+02 -0.10905168251E+03  0.11098251893E+03  0.00000000000E+00 0.  1.
         21    1    1    2  504  502 -0.35566866465E+01 -0.20302709884E+02 -0.64030026594E+01  0.21583523614E+02  0.00000000000E+00 0.  1.
<mgrwt>
<rscale>  2 0.20611891E+02</rscale>
<asrwt>0</asrwt>
<pdfrwt beam="1">  1       21 0.13162583E-02 0.20611891E+02</pdfrwt>
<pdfrwt beam="2">  1       21 0.19078517E-01 0.20611891E+02</pdfrwt>
<totfact> 0.42985839E+07</totfact>
</mgrwt>
</event>
<event>
 4    1  0.9374408E+003  0.2181044E+02  0.7546771E-02  0.1711551E+00
         21   -1    0    0  502  501  0.00000000000E+00  0.00000000000E+00  0.10908692806E+02  0.10908692806E+02  0.00000000000E+00 0. -1.
         21   -1    0    0  503  502 -0.00000000000E+00 -0.00000000000E+00 -0.10563749926E+03  0.10563749926E+03  0.00000000000E+00 0. -1.
         21    1    1    2  503  504 -0.17939145575E+02  0.12404933267E+02 -0.27102670544E+01  0.21978190572E+02  0.00000000000E+00 0.  1.
         21    1    1    2  504  501  0.17939145575E+02 -0.12404933267E+02 -0.92018539396E+02  0.94568001490E+02  0.00000000000E+00 0.  1.
<mgrwt>
<rscale>  2 0.21810440E+02</rscale>
<asrwt>0</asrwt>
<pdfrwt beam="1">  1       21 0.16782604E-02 0.21810440E+02</pdfrwt>
<pdfrwt beam="2">  1       21 0.16251923E-01 0.21810440E+02</pdfrwt>
<totfact> 0.39749430E+07</totfact>
</mgrwt>
</event>
<event>
 4    1  0.9374408E+003  0.2081252E+02  0.7546771E-02  0.1729637E+00
         21   -1    0    0  503  501  0.00000000000E+00  0.00000000000E+00  0.17439407529E+02  0.17439407529E+02  0.00000000000E+00 0.  1.
         21   -1    0    0  501  502 -0.00000000000E+00 -0.00000000000E+00 -0.47599763573E+02  0.47599763573E+02  0.00000000000E+00 0.  1.
         21    1    1    2  503  504 -0.63236525536E+01  0.19828578448E+02  0.74075176935E+01  0.22091455888E+02  0.00000000000E+00 0.  1.
         21    1    1    2  504  502  0.63236525536E+01 -0.19828578448E+02 -0.37567873738E+02  0.42947715214E+02  0.00000000000E+00 0.  1.
<mgrwt>
<rscale>  2 0.20812523E+02</rscale>
<asrwt>0</asrwt>
<pdfrwt beam="1">  1       21 0.26829858E-02 0.20812523E+02</pdfrwt>
<pdfrwt beam="2">  1       21 0.73230405E-02 0.20812523E+02</pdfrwt>
<totfact> 0.71813724E+07</totfact>
</mgrwt>
</event>
<event>
 4    1  0.9374408E+003  0.2412637E+02  0.7546771E-02  0.1673877E+00
         21   -1    0    0  504  501  0.00000000000E+00  0.00000000000E+00  0.39981176154E+03  0.39981176154E+03  0.00000000000E+00 0.  1.
         21   -1    0    0  501  502 -0.00000000000E+00 -0.00000000000E+00 -0.39930484688E+01  0.39930484688E+01  0.00000000000E+00 0.  1.
         21    1    1    2  503  502 -0.10673148765E+02  0.21637140587E+02  0.35884898544E+03  0.35965911126E+03  0.00000000000E+00 0. -1.
         21    1    1    2  504  503  0.10673148765E+02 -0.21637140587E+02  0.36969727631E+02  0.44145698754E+02  0.00000000000E+00 0. -1.
<mgrwt>
<rscale>  2 0.24126375E+02</rscale>
<asrwt>0</asrwt>
<pdfrwt beam="1">  1       21 0.61509470E-01 0.24126375E+02</pdfrwt>
<pdfrwt beam="2">  1       21 0.61431547E-03 0.24126375E+02</pdfrwt>
<totfact> 0.15903903E+07</totfact>
</mgrwt>
</event>
<event>
 4    1  0.9374408E+003  0.2536144E+02  0.7546771E-02  0.1655864E+00
         21   -1    0    0  503  501  0.00000000000E+00  0.00000000000E+00  0.10170383834E+01  0.10170383834E+01  0.00000000000E+00 0. -1.
         21   -1    0    0  501  502 -0.00000000000E+00 -0.00000000000E+00 -0.89282585054E+03  0.89282585054E+03  0.00000000000E+00 0. -1.
         21    1    1    2  503  504 -0.46409649367E+01 -0.24933189566E+02 -0.20454325033E+03  0.20610954309E+03  0.00000000000E+00 0.  1.
         21    1    1    2  504  502  0.46409649367E+01  0.24933189566E+02 -0.68726556183E+03  0.68773334584E+03  0.00000000000E+00 0.  1.
<mgrwt>
<rscale>  2 0.25361437E+02</rscale>
<asrwt>0</asrwt>
<pdfrwt beam="1">  1       21 0.15646751E-03 0.25361437E+02</pdfrwt>
<pdfrwt beam="2">  1       21 0.13735777E+00 0.25361437E+02</pdfrwt>
<totfact> 0.20827075E+07</totfact>
</mgrwt>
</event>
<event>
 4    1  0.9374408E+003  0.2664772E+02  0.7546771E-02  0.1638404E+00
         21   -1    0    0  502  501  0.00000000000E+00  0.00000000000E+00  0.39299108289E+02  0.39299108289E+02  0.00000000000E+00 0. -1.
         21   -1    0    0  504  502 -0.00000000000E+00 -0.00000000000E+00 -0.29932030299E+02  0.29932030299E+02  0.00000000000E+00 0. -1.
         21    1    1    2  503  501  0.13252619286E+02 -0.23118582070E+02  0.26475624961E+02  0.37564071557E+02  0.00000000000E+00 0. -1.
         21    1    1    2  504  503 -0.13252619286E+02  0.23118582070E+02 -0.17108546971E+02  0.31667067030E+02  0.00000000000E+00 0. -1.
<mgrwt>
<rscale>  2 0.26647716E+02</rscale>
<asrwt>0</asrwt>
<pdfrwt beam="1">  1       21 0.60460167E-02 0.26647716E+02</pdfrwt>
<pdfrwt beam="2">  1       21 0.46049277E-02 0.26647716E+02</pdfrwt>
<totfact> 0.44712272E+07</totfact>
</mgrwt>
</event>
<event>
 4    1  0.9374408E+003  0.2031959E+02  0.7546771E-02  0.1739046E+00
         21   -1    0    0  504  501  0.00000000000E+00  0.00000000000E+00  0.62454675653E+02  0.62454675653E+02  0.00000000000E+00 0.  1.
         21   -1    0    0  501  502 -0.00000000000E+00 -0.00000000000E+00 -0.28678783743E+02  0.28678783743E+02  0.00000000000E+00 0.  1.
         21    1    1    2  503  502 -0.20189673152E+02 -0.22940807015E+01 -0.23083254797E+02  0.30752599244E+02  0.00000000000E+00 0. -1.
         21    1    1    2  504  503  0.20189673152E+02  0.22940807015E+01  0.56859146708E+02  0.60380860151E+02  0.00000000000E+00 0. -1.
<mgrwt>
<rscale>  2 0.20319589E+02</rscale>
<asrwt>0</asrwt>
<pdfrwt beam="1">  1       21 0.96084116E-02 0.20319589E+02</pdfrwt>
<pdfrwt beam="2">  1       21 0.44121206E-02 0.20319589E+02</pdfrwt>
<totfact> 0.21115694E+07</totfact>
</mgrwt>
</event>
<event>
 4    1  0.9374408E+003  0.5264616E+02  0.7546771E-02  0.1431570E+00
         21   -1    0    0  502  501  0.00000000000E+00  0.00000000000E+00  0.47239193042E+01  0.47239193042E+01  0.00000000000E+00 0.  1.
         21   -1    0    0  504  502 -0.00000000000E+00 -0.00000000000E+00 -0.63900475057E+03  0.63900475057E+03  0.00000000000E+00 0.  1.
         21    1    1    2  503  501 -0.44343325137E+02 -0.28377597998E+02 -0.40920822069E+03  0.41258088472E+03  0.00000000000E+00 0. -1.
         21    1    1    2  504  503  0.44343325137E+02  0.28377597998E+02 -0.22507261057E+03  0.23114778516E+03  0.00000000000E+00 0. -1.
<mgrwt>
<rscale>  2 0.52646164E+02</rscale>
<asrwt>0</asrwt>
<pdfrwt beam="1">  1       21 0.72675655E-03 0.52646164E+02</pdfrwt>
<pdfrwt beam="2">  1       21 0.98308459E-01 0.52646164E+02</pdfrwt>
<totfact> 0.50222527E+06</totfact>
</mgrwt>
</event>
<event>
 4    1  0.9374408E+003  0.2810563E+02  0.7546771E-02  0.1620025E+00
         21   -1    0    0  502  501  0.00000000000E+00  0.00000000000E+00  0.18050506607E+02  0.18050506607E+02  0.00000000000E+00 0.  1.
         21   -1    0    0  504  502 -0.00000000000E+00 -0.00000000000E+00 -0.64401116518E+02  0.64401116518E+02  0.00000000000E+00 0.  1.
         21    1    1    2  503  501 -0.57329262319E+01  0.27514725030E+02 -0.46513534741E+02  0.54345519141E+02  0.00000000000E+00 0.  1.
         21    1    1    2  504  503  0.57329262319E+01 -0.27514725030E+02  0.16292483016E+00  0.28106103984E+02  0.00000000000E+00 0.  1.
<mgrwt>
<rscale>  2 0.28105632E+02</rscale>
<asrwt>0</asrwt>
<pdfrwt beam="1">  1       21 0.27770010E-02 0.28105632E+02</pdfrwt>
<pdfrwt beam="2">  1       21 0.99078641E-02 0.28105632E+02</pdfrwt>
<totfact> 0.44740423E+07</totfact>
</mgrwt>
</event>
<event>
 4    1  0.9374408E+003  0.2777111E+02  0.7546771E-02  0.1624119E+00
         21   -1    0    0  503  501  0.00000000000E+00  0.00000000000E+00  0.44507616133E+01  0.44507616133E+01  0.00000000000E+00 0.  1.
         21   -1    0    0  501  502 -0.00000000000E+00 -0.00000000000E+00 -0.20859041983E+03  0.20859041983E+03  0.00000000000E+00 0.  1.
         21    1    1    2  503  504  0.19966778686E+02  0.19301870796E+02 -0.14589552829E+03  0.14851511587E+03  0.00000000000E+00 0.  1.
         21    1    1    2  504  502 -0.19966778686E+02 -0.19301870796E+02 -0.58244129929E+02  0.64526065575E+02  0.00000000000E+00 0.  1.
<mgrwt>
<rscale>  2 0.27771108E+02</rscale>
<asrwt>0</asrwt>
<pdfrwt beam="1">  1       21 0.68473268E-03 0.27771108E+02</pdfrwt>
<pdfrwt beam="2">  1       21 0.32090828E-01 0.27771108E+02</pdfrwt>
<totfact> 0.48652524E+07</totfact>
</mgrwt>
</event>
<event>
 4    1  0.9374408E+003  0.2362128E+02  0.7546771E-02  0.1681633E+00
         21   -1    0    0  502  501  0.00000000000E+00  0.00000000000E+00  0.85667809146E+03  0.85667809146E+03  0.00000000000E+00 0. -1.
         21   -1    0    0  504  502 -0.00000000000E+00 -0.00000000000E+00 -0.55883735230E+01  0.55883735230E+01  0.00000000000E+00 0. -1.
         21    1    1    2  503  501 -0.19656388701E+02  0.13099283178E+02  0.20313495533E+02  0.31154501076E+02  0.00000000000E+00 0.  1.
         21    1    1    2  504  503  0.19656388701E+02 -0.13099283178E+02  0.83077622241E+03  0.83111196391E+03  0.00000000000E+00 0.  1.
<mgrwt>
<rscale>  2 0.23621279E+02</rscale>
<asrwt>0</asrwt>
<pdfrwt beam="1">  1       21 0.13179653E+00 0.23621279E+02</pdfrwt>
<pdfrwt beam="2">  1       21 0.85975045E-03 0.23621279E+02</pdfrwt>
<totfact> 0.18635321E+06</totfact>
</mgrwt>
</event>
<event>
 4    1  0.9374408E+003  0.2733887E+02  0.7546771E-02  0.1629515E+00
         21   -1    0    0  504  501  0.00000000000E+00  0.00000000000E+00  0.20968578603E+03  0.20968578603E+03  0.00000000000E+00 0. -1.
         21   -1    0    0  501  502 -0.00000000000E+00 -0.00000000000E+00 -0.63582676925E+01  0.63582676925E+01  0.00000000000E+00 0. -1.
         21    1    1    2  503  502  0.70221001680E+01 -0.26421657902E+02  0.30058953109E+02  0.40631940134E+02  0.00000000000E+00 0.  1.
         21    1    1    2  504  503 -0.70221001680E+01  0.26421657902E+02  0.17326856523E+03  0.17541211359E+03  0.00000000000E+00 0.  1.
<mgrwt>
<rscale>  2 0.27338872E+02</rscale>
<asrwt>0</asrwt>
<pdfrwt beam="1">  1       21 0.32259346E-01 0.27338872E+02</pdfrwt>
<pdfrwt beam="2">  1       21 0.97819519E-03 0.27338872E+02</pdfrwt>
<totfact> 0.28096912E+07</totfact>
</mgrwt>
</event>
<event>
 4    1  0.9374408E+003  0.2698272E+02  0.7546771E-02  0.1634055E+00
         21   -1    0    0  502  501  0.00000000000E+00  0.00000000000E+00  0.80518161172E+01  0.80518161172E+01  0.00000000000E+00 0.  1.
         21   -1    0    0  504  502 -0.00000000000E+00 -0.00000000000E+00 -0.15439879361E+03  0.15439879361E+03  0.00000000000E+00 0.  1.
         21    1    1    2  503  501  0.20522595763E+02 -0.17518281673E+02 -0.12545861772E+03  0.12832744013E+03  0.00000000000E+00 0.  1.
         21    1    1    2  504  503 -0.20522595763E+02  0.17518281673E+02 -0.20888359778E+02  0.34123169604E+02  0.00000000000E+00 0.  1.
<mgrwt>
<rscale>  2 0.26982719E+02</rscale>
<asrwt>0</asrwt>
<pdfrwt beam="1">  1       21 0.12387411E-02 0.26982719E+02</pdfrwt>
<pdfrwt beam="2">  1       21 0.23753658E-01 0.26982719E+02</pdfrwt>
<totfact> 0.34156886E+07</totfact>
</mgrwt>
</event>
<event>
 4    1  0.9374408E+003  0.2124525E+02  0.7546771E-02  0.1721642E+00
         21   -1    0    0  502  501  0.00000000000E+00  0.00000000000E+00  0.16742349310E+02  0.16742349310E+02  0.00000000000E+00 0. -1.
         21   -1    0    0  504  502 -0.00000000000E+00 -0.00000000000E+00 -0.36479826296E+02  0.36479826296E+02  0.00000000000E+00 0. -1.
         21    1    1    2  503  501  0.30829551448E+00 -0.21243010024E+02  0.37259344702E+01  0.21569494864E+02  0.00000000000E+00 0. -1.
         21    1    1    2  504  503 -0.30829551448E+00  0.21243010024E+02 -0.23463411455E+02  0.31652680742E+02  0.00000000000E+00 0. -1.
<mgrwt>
<rscale>  2 0.21245247E+02</rscale>
<asrwt>0</asrwt>
<pdfrwt beam="1">  1       21 0.25757461E-02 0.21245247E+02</pdfrwt>
<pdfrwt beam="2">  1       21 0.56122809E-02 0.21245247E+02</pdfrwt>
<totfact> 0.11795852E+08</totfact>
</mgrwt>
</event>
<event>
 4    1  0.9374408E+003  0.2097927E+02  0.7546771E-02  0.1726527E+00
         21   -1    0    0  502  501  0.00000000000E+00  0.00000000000E+00  0.19837708806E+01  0.19837708806E+01  0.00000000000E+00 0. -1.
         21   -1    0    0  504  502 -0.00000000000E+00 -0.00000000000E+00 -0.80198034226E+03  0.80198034226E+03  0.00000000000E+00 0. -1.
         21    1    1    2  503  501 -0.71393580247E+01 -0.19727125711E+02 -0.74188472054E+03  0.74218129086E+03  0.00000000000E+00 0. -1.
         21    1    1    2  504  503  0.71393580247E+01  0.19727125711E+02 -0.58111850840E+02  0.61782822288E+02  0.00000000000E+00 0. -1.
<mgrwt>
<rscale>  2 0.20979274E+02</rscale>
<asrwt>0</asrwt>
<pdfrwt beam="1">  1       21 0.30519464E-03 0.20979274E+02</pdfrwt>
<pdfrwt beam="2">  1       21 0.12338195E+00 0.20979274E+02</pdfrwt>
<totfact> 0.98261297E+06</totfact>
</mgrwt>
</event>
<event>
 4    1  0.9374408E+003  0.3659026E+02  0.7546771E-02  0.1534916E+00
         21   -1    0    0  502  501  0.00000000000E+00  0.00000000000E+00  0.18137688561E+04  0.18137688561E+04  0.00000000000E+00 0. -1.
         21   -1    0    0  504  502 -0.00000000000E+00 -0.00000000000E+00 -0.15305421473E+01  0.15305421473E+01  0.00000000000E+00 0. -1.
         21    1    1    2  503  501 -0.86116753505E+01 -0.35562428281E+02  0.15591950024E+04  0.15596242825E+04  0.00000000000E+00 0.  1.
         21    1    1    2  504  503  0.86116753505E+01  0.35562428281E+02  0.25304331156E+03  0.25567511569E+03  0.00000000000E+00 0.  1.
<mgrwt>
<rscale>  2 0.36590262E+02</rscale>
<asrwt>0</asrwt>
<pdfrwt beam="1">  1       21 0.27903964E+00 0.36590262E+02</pdfrwt>
<pdfrwt beam="2">  1       21 0.23546947E-03 0.36590262E+02</pdfrwt>
<totfact> 0.17774507E+06</totfact>
</mgrwt>
</event>
<event>
 4    1  0.9374408E+003  0.4062007E+02  0.7546771E-02  0.1503697E+00
         21   -1    0    0  503  501  0.00000000000E+00  0.00000000000E+00  0.53129371389E+02  0.53129371389E+02  0.00000000000E+00 0. -1.
         21   -1    0    0  501  502 -0.00000000000E+00 -0.00000000000E+00 -0.10593476784E+03  0.10593476784E+03  0.00000000000E+00 0. -1.
         21    1    1    2  503  504  0.18093764639E+02  0.36367647876E+02 -0.93268203447E+02  0.10172977885E+03  0.00000000000E+00 0.  1.
         21    1    1    2  504  502 -0.18093764639E+02 -0.36367647876E+02  0.40462806991E+02  0.57334360382E+02  0.00000000000E+00 0.  1.
<mgrwt>
<rscale>  2 0.40620071E+02</rscale>
<asrwt>0</asrwt>
<pdfrwt beam="1">  1       21 0.81737495E-02 0.40620071E+02</pdfrwt>
<pdfrwt beam="2">  1       21 0.16297656E-01 0.40620071E+02</pdfrwt>
<totfact> 0.35563302E+06</totfact>
</mgrwt>
</event>
<event>
 4    1  0.9374408E+003  0.2781567E+02  0.7546771E-02  0.1623569E+00
         21   -1    0    0  502  501  0.00000000000E+00  0.00000000000E+00  0.24823078409E+01  0.24823078409E+01  0.00000000000E+00 0.  1.
         21   -1    0    0  504  502 -0.00000000000E+00 -0.00000000000E+00 -0.41465715883E+03  0.41465715883E+03  0.00000000000E+00 0.  1.
         21    1    1    2  503  501 -0.24072364347E+02 -0.13936747872E+02 -0.10215403331E+03  0.10587331198E+03  0.00000000000E+00 0. -1.
         21    1    1    2  504  503  0.24072364347E+02  0.13936747872E+02 -0.31002081768E+03  0.31126615470E+03  0.00000000000E+00 0. -1.
<mgrwt>
<rscale>  2 0.27815673E+02</rscale>
<asrwt>0</asrwt>
<pdfrwt beam="1">  1       21 0.38189361E-03 0.27815673E+02</pdfrwt>
<pdfrwt beam="2">  1       21 0.63793392E-01 0.27815673E+02</pdfrwt>
<totfact> 0.30654545E+07</totfact>
</mgrwt>
</event>
<event>
 4    1  0.9374408E+003  0.2180015E+02  0.7546771E-02  0.1711731E+00
         21   -1    0    0  502  501  0.00000000000E+00  0.00000000000E+00  0.50710443586E+01  0.50710443586E+01  0.00000000000E+00 0. -1.
         21   -1    0    0  503  502 -0.00000000000E+00 -0.00000000000E+00 -0.14654895986E+03  0.14654895986E+03  0.00000000000E+00 0. -1.
         21    1    1    2  503  504  0.15879608299E+02  0.14936021898E+02 -0.25221233088E+02  0.33337026087E+02  0.00000000000E+00 0. -1.
         21    1    1    2  504  501 -0.15879608299E+02 -0.14936021898E+02 -0.11625668242E+03  0.11828297813E+03  0.00000000000E+00 0. -1.
<mgrwt>
<rscale>  2 0.21800154E+02</rscale>
<asrwt>0</asrwt>
<pdfrwt beam="1">  1       21 0.78016084E-03 0.21800154E+02</pdfrwt>
<pdfrwt beam="2">  1       21 0.22545989E-01 0.21800154E+02</pdfrwt>
<totfact> 0.71359170E+07</totfact>
</mgrwt>
</event>
<event>
 4    1  0.9374408E+003  0.4373219E+02  0.7546771E-02  0.1482415E+00
         21   -1    0    0  504  501  0.00000000000E+00  0.00000000000E+00  0.71462233022E+02  0.71462233022E+02  0.00000000000E+00 0.  1.
         21   -1    0    0  501  502 -0.00000000000E+00 -0.00000000000E+00 -0.35540155751E+02  0.35540155751E+02  0.00000000000E+00 0.  1.
         21    1    1    2  503  502  0.36587074020E+02  0.23956002756E+02  0.44549576552E+02  0.62427308322E+02  0.00000000000E+00 0.  1.
         21    1    1    2  504  503 -0.36587074020E+02 -0.23956002756E+02 -0.86274992812E+01  0.44575080451E+02  0.00000000000E+00 0.  1.
<mgrwt>
<rscale>  2 0.43732186E+02</rscale>
<asrwt>0</asrwt>
<pdfrwt beam="1">  1       21 0.10994190E-01 0.43732186E+02</pdfrwt>
<pdfrwt beam="2">  1       21 0.54677163E-02 0.43732186E+02</pdfrwt>
<totfact> 0.13766353E+07</totfact>
</mgrwt>
</event>
<event>
 4    1  0.9374408E+003  0.6391818E+02  0.7546771E-02  0.1382088E+00
         21   -1    0    0  502  501  0.00000000000E+00  0.00000000000E+00  0.10217398564E+02  0.10217398564E+02  0.00000000000E+00 0. -1.
         21   -1    0    0  503  502 -0.00000000000E+00 -0.00000000000E+00 -0.55494903518E+03  0.55494903518E+03  0.00000000000E+00 0. -1.
         21    1    1    2  503  504  0.53292350841E+02  0.35291070504E+02 -0.42175172650E+03  0.42656775912E+03  0.00000000000E+00 0.  1.
         21    1    1    2  504  501 -0.53292350841E+02 -0.35291070504E+02 -0.12297991012E+03  0.13859867463E+03  0.00000000000E+00 0.  1.
<mgrwt>
<rscale>  2 0.63918185E+02</rscale>
<asrwt>0</asrwt>
<pdfrwt beam="1">  1       21 0.15719073E-02 0.63918185E+02</pdfrwt>
<pdfrwt beam="2">  1       21 0.85376784E-01 0.63918185E+02</pdfrwt>
<totfact> 0.21073514E+06</totfact>
</mgrwt>
</event>
<event>
 4    1  0.9374408E+003  0.4195646E+02  0.7546771E-02  0.1494288E+00
         21   -1    0    0  503  501  0.00000000000E+00  0.00000000000E+00  0.28900882448E+01  0.28900882448E+01  0.00000000000E+00 0.  1.
         21   -1    0    0  501  502 -0.00000000000E+00 -0.00000000000E+00 -0.12714544012E+04  0.12714544012E+04  0.00000000000E+00 0.  1.
         21    1    1    2  503  504  0.96851215164E+00  0.41945284805E+02 -0.17439365106E+03  0.17936970330E+03  0.00000000000E+00 0. -1.
         21    1    1    2  504  502 -0.96851215164E+00 -0.41945284805E+02 -0.10941706619E+04  0.10949747861E+04  0.00000000000E+00 0. -1.
<mgrwt>
<rscale>  2 0.41956465E+02</rscale>
<asrwt>0</asrwt>
<pdfrwt beam="1">  1       21 0.44462895E-03 0.41956465E+02</pdfrwt>
<pdfrwt beam="2">  1       21 0.19560838E+00 0.41956465E+02</pdfrwt>
<totfact> 0.19510049E+06</totfact>
</mgrwt>
</event>
<event>
 4    1  0.9374408E+003  0.3071848E+02  0.7546771E-02  0.1590280E+00
         21   -1    0    0  504  501  0.00000000000E+00  0.00000000000E+00  0.31156374188E+02  0.31156374188E+02  0.00000000000E+00 0.  1.
         21   -1    0    0  501  502 -0.00000000000E+00 -0.00000000000E+00 -0.36359166747E+02  0.36359166747E+02  0.00000000000E+00 0.  1.
         21    1    1    2  503  502 -0.97141914895E+01  0.29142055367E+02 -0.16397233096E+02  0.34820886843E+02  0.00000000000E+00 0.  1.
         21    1    1    2  504  503  0.97141914895E+01 -0.29142055367E+02  0.11194440536E+02  0.32694654093E+02  0.00000000000E+00 0.  1.
<mgrwt>
<rscale>  2 0.30718478E+02</rscale>
<asrwt>0</asrwt>
<pdfrwt beam="1">  1       21 0.47932883E-02 0.30718478E+02</pdfrwt>
<pdfrwt beam="2">  1       21 0.55937180E-02 0.30718478E+02</pdfrwt>
<totfact> 0.49113818E+07</totfact>
</mgrwt>
</event>
<event>
 4    1  0.9374408E+003  0.2934811E+02  0.7546771E-02  0.1605408E+00
         21   -1    0    0  504  501  0.00000000000E+00  0.00000000000E+00  0.38328451984E+03  0.38328451984E+03  0.00000000000E+00 0. -1.
         21   -1    0    0  501  502 -0.00000000000E+00 -0.00000000000E+00 -0.25483868204E+01  0.25483868204E+01  0.00000000000E+00 0. -1.
         21    1    1    2  503  502  0.27706053948E+02  0.96791737082E+01  0.25669108009E+03  0.25836335349E+03  0.00000000000E+00 0.  1.
         21    1    1    2  504  503 -0.27706053948E+02 -0.96791737082E+01  0.12404505292E+03  0.12746955316E+03  0.00000000000E+00 0.  1.
<mgrwt>
<rscale>  2 0.29348115E+02</rscale>
<asrwt>0</asrwt>
<pdfrwt beam="1">  1       21 0.58966804E-01 0.29348115E+02</pdfrwt>
<pdfrwt beam="2">  1       21 0.39205981E-03 0.29348115E+02</pdfrwt>
<totfact> 0.34940192E+07</totfact>
</mgrwt>
</event>
<event>
 4    1  0.9374408E+003  0.2337497E+02  0.7546771E-02  0.1685503E+00
         21   -1    0    0  503  501  0.00000000000E+00  0.00000000000E+00  0.82520478593E+00  0.82520478593E+00  0.00000000000E+00 0.  1.
         21   -1    0    0  501  502 -0.00000000000E+00 -0.00000000000E+00 -0.79721567168E+03  0.79721567168E+03  0.00000000000E+00 0.  1.
         21    1    1    2  503  504  0.16680042605E+02  0.16375759946E+02 -0.23394019215E+03  0.23510508893E+03  0.00000000000E+00 0. -1.
         21    1    1    2  504  502 -0.16680042605E+02 -0.16375759946E+02 -0.56245027474E+03  0.56293578754E+03  0.00000000000E+00 0. -1.
<mgrwt>
<rscale>  2 0.23374972E+02</rscale>
<asrwt>0</asrwt>
<pdfrwt beam="1">  1       21 0.12695402E-03 0.23374972E+02</pdfrwt>
<pdfrwt beam="2">  1       21 0.12264911E+00 0.23374972E+02</pdfrwt>
<totfact> 0.35976842E+07</totfact>
</mgrwt>
</event>
<event>
 4    1  0.9374408E+003  0.3658266E+02  0.7546771E-02  0.1534979E+00
         21   -1    0    0  504  501  0.00000000000E+00  0.00000000000E+00  0.42491010810E+01  0.42491010810E+01  0.00000000000E+00 0.  1.
         21   -1    0    0  501  502 -0.00000000000E+00 -0.00000000000E+00 -0.36401322467E+03  0.36401322467E+03  0.00000000000E+00 0.  1.
         21    1    1    2  503  502 -0.14252487852E+01 -0.36554881148E+02 -0.24747618862E+03  0.25016545446E+03  0.00000000000E+00 0. -1.
         21    1    1    2  504  503  0.14252487852E+01  0.36554881148E+02 -0.11228793497E+03  0.11809687129E+03  0.00000000000E+00 0. -1.
<mgrwt>
<rscale>  2 0.36582655E+02</rscale>
<asrwt>0</asrwt>
<pdfrwt beam="1">  1       21 0.65370792E-03 0.36582655E+02</pdfrwt>
<pdfrwt beam="2">  1       21 0.56002029E-01 0.36582655E+02</pdfrwt>
<totfact> 0.18764048E+07</totfact>
</mgrwt>
</event>
<event>
 4    1  0.9374408E+003  0.2777191E+02  0.7546771E-02  0.1624109E+00
         21   -1    0    0  502  501  0.00000000000E+00  0.00000000000E+00  0.29370505275E+02  0.29370505275E+02  0.00000000000E+00 0. -1.
         21   -1    0    0  504  502 -0.00000000000E+00 -0.00000000000E+00 -0.46313258200E+02  0.46313258200E+02  0.00000000000E+00 0. -1.
         21    1    1    2  503  501 -0.26081300680E+02  0.95417255581E+01  0.16429182681E+02  0.32267581492E+02  0.00000000000E+00 0.  1.
         21    1    1    2  504  503  0.26081300680E+02 -0.95417255581E+01 -0.33371935607E+02  0.43416181982E+02  0.00000000000E+00 0.  1.
<mgrwt>
<rscale>  2 0.27771906E+02</rscale>
<asrwt>0</asrwt>
<pdfrwt beam="1">  1       21 0.45185393E-02 0.27771906E+02</pdfrwt>
<pdfrwt beam="2">  1       21 0.71251166E-02 0.27771906E+02</pdfrwt>
<totfact> 0.35625105E+07</totfact>
</mgrwt>
</event>
<event>
 4    1  0.9374408E+003  0.3118891E+02  0.7546771E-02  0.1585307E+00
         21   -1    0    0  503  501  0.00000000000E+00  0.00000000000E+00  0.60525979066E+03  0.60525979066E+03  0.00000000000E+00 0.  1.
         21   -1    0    0  501  502 -0.00000000000E+00 -0.00000000000E+00 -0.20878390517E+01  0.20878390517E+01  0.00000000000E+00 0.  1.
         21    1    1    2  503  504 -0.25057905173E+02 -0.18570118335E+02  0.44729535022E+03  0.44838139818E+03  0.00000000000E+00 0.  1.
         21    1    1    2  504  502  0.25057905173E+02  0.18570118335E+02  0.15587660139E+03  0.15896623153E+03  0.00000000000E+00 0.  1.
<mgrwt>
<rscale>  2 0.31188907E+02</rscale>
<asrwt>0</asrwt>
<pdfrwt beam="1">  1       21 0.93116751E-01 0.31188907E+02</pdfrwt>
<pdfrwt beam="2">  1       21 0.32120649E-03 0.31188907E+02</pdfrwt>
<totfact> 0.18182207E+07</totfact>
</mgrwt>
</event>
<event>
 4    1  0.9374408E+003  0.3225483E+02  0.7546771E-02  0.1574423E+00
         21   -1    0    0  502  501  0.00000000000E+00  0.00000000000E+00  0.36490276102E+02  0.36490276102E+02  0.00000000000E+00 0.  1.
         21   -1    0    0  504  502 -0.00000000000E+00 -0.00000000000E+00 -0.44695878992E+02  0.44695878992E+02  0.00000000000E+00 0.  1.
         21    1    1    2  503  501 -0.19416756438E+02  0.25755843936E+02 -0.28529967711E+02  0.43061966804E+02  0.00000000000E+00 0. -1.
         21    1    1    2  504  503  0.19416756438E+02 -0.25755843936E+02  0.20324364821E+02  0.38124188290E+02  0.00000000000E+00 0. -1.
<mgrwt>
<rscale>  2 0.32254828E+02</rscale>
<asrwt>0</asrwt>
<pdfrwt beam="1">  1       21 0.56138886E-02 0.32254828E+02</pdfrwt>
<pdfrwt beam="2">  1       21 0.68762891E-02 0.32254828E+02</pdfrwt>
<totfact> 0.27463176E+07</totfact>
</mgrwt>
</event>
<event>
 4    1  0.9374408E+003  0.2464175E+02  0.7546771E-02  0.1666201E+00
         21   -1    0    0  503  501  0.00000000000E+00  0.00000000000E+00  0.19894302968E+02  0.19894302968E+02  0.00000000000E+00 0.  1.
         21   -1    0    0  501  502 -0.00000000000E+00 -0.00000000000E+00 -0.58539330506E+02  0.58539330506E+02  0.00000000000E+00 0.  1.
         21    1    1    2  503  504  0.46817284631E+01  0.24192922319E+02 -0.46453213795E+02  0.52584381175E+02  0.00000000000E+00 0.  1.
         21    1    1    2  504  502 -0.46817284631E+01 -0.24192922319E+02  0.78081862567E+01  0.25849252298E+02  0.00000000000E+00 0.  1.
<mgrwt>
<rscale>  2 0.24641755E+02</rscale>
<asrwt>0</asrwt>
<pdfrwt beam="1">  1       21 0.30606620E-02 0.24641755E+02</pdfrwt>
<pdfrwt beam="2">  1       21 0.90060509E-02 0.24641755E+02</pdfrwt>
<totfact> 0.43664472E+07</totfact>
</mgrwt>
</event>
<event>
 4    1  0.9374408E+003  0.2042669E+02  0.7546771E-02  0.1736974E+00
         21   -1    0    0  502  501  0.00000000000E+00  0.00000000000E+00  0.28456080479E+03  0.28456080479E+03  0.00000000000E+00 0. -1.
         21   -1    0    0  503  502 -0.00000000000E+00 -0.00000000000E+00 -0.28494173171E+01  0.28494173171E+01  0.00000000000E+00 0. -1.
         21    1    1    2  503  504 -0.17512749571E+01  0.20351479628E+02  0.24097658318E+03  0.24184078095E+03  0.00000000000E+00 0. -1.
         21    1    1    2  504  501  0.17512749571E+01 -0.20351479628E+02  0.40734804289E+02  0.45569441158E+02  0.00000000000E+00 0. -1.
<mgrwt>
<rscale>  2 0.20426691E+02</rscale>
<asrwt>0</asrwt>
<pdfrwt beam="1">  1       21 0.43778563E-01 0.20426691E+02</pdfrwt>
<pdfrwt beam="2">  1       21 0.43837212E-03 0.20426691E+02</pdfrwt>
<totfact> 0.48988989E+07</totfact>
</mgrwt>
</event>
<event>
 4    1  0.9374408E+003  0.2963348E+02  0.7546771E-02  0.1602176E+00
         21   -1    0    0  504  501  0.00000000000E+00  0.00000000000E+00  0.25756104311E+02  0.25756104311E+02  0.00000000000E+00 0. -1.
         21   -1    0    0  501  502 -0.00000000000E+00 -0.00000000000E+00 -0.36379104125E+02  0.36379104125E+02  0.00000000000E+00 0. -1.
         21    1    1    2  503  502 -0.24400196788E+02  0.16815867055E+02  0.24739146853E+01  0.29736564058E+02  0.00000000000E+00 0.  1.
         21    1    1    2  504  503  0.24400196788E+02 -0.16815867055E+02 -0.13096914499E+02  0.32398644378E+02  0.00000000000E+00 0.  1.
<mgrwt>
<rscale>  2 0.29633477E+02</rscale>
<asrwt>0</asrwt>
<pdfrwt beam="1">  1       21 0.39624776E-02 0.29633477E+02</pdfrwt>
<pdfrwt beam="2">  1       21 0.55967853E-02 0.29633477E+02</pdfrwt>
<totfact> 0.65991432E+07</totfact>
</mgrwt>
</event>
<event>
 4    1  0.9374408E+003  0.2729153E+02  0.7546771E-02  0.1630114E+00
         21   -1    0    0  504  501  0.00000000000E+00  0.00000000000E+00  0.24765169554E+03  0.24765169554E+03  0.00000000000E+00 0.  1.
         21   -1    0    0  501  502 -0.00000000000E+00 -0.00000000000E+00 -0.58109092229E+01  0.58109092229E+01  0.00000000000E+00 0.  1.
         21    1    1    2  503  502 -0.24162689188E+02 -0.12688259476E+02  0.20894425308E+03  0.21071907453E+03  0.00000000000E+00 0. -1.
         21    1    1    2  504  503  0.24162689188E+02  0.12688259476E+02  0.32896533234E+02  0.42743530225E+02  0.00000000000E+00 0. -1.
<mgrwt>
<rscale>  2 0.27291528E+02</rscale>
<asrwt>0</asrwt>
<pdfrwt beam="1">  1       21 0.38100253E-01 0.27291528E+02</pdfrwt>
<pdfrwt beam="2">  1       21 0.89398623E-03 0.27291528E+02</pdfrwt>
<totfact> 0.23582267E+07</totfact>
</mgrwt>
</event>
<event>
 4    1  0.9374408E+003  0.2183707E+02  0.7546771E-02  0.1711085E+00
         21   -1    0    0  504  501  0.00000000000E+00  0.00000000000E+00  0.67895980629E+01  0.67895980629E+01  0.00000000000E+00 0. -1.
         21   -1    0    0  501  502 -0.00000000000E+00 -0.00000000000E+00 -0.83480829516E+02  0.83480829516E+02  0.00000000000E+00 0. -1.
         21    1    1    2  503  502  0.21722935024E+02 -0.22297110076E+01 -0.20365784303E+02  0.29860051699E+02  0.00000000000E+00 0.  1.
         21    1    1    2  504  503 -0.21722935024E+02  0.22297110076E+01 -0.56325447150E+02  0.60410375879E+02  0.00000000000E+00 0.  1.
<mgrwt>
<rscale>  2 0.21837068E+02</rscale>
<asrwt>0</asrwt>
<pdfrwt beam="1">  1       21 0.10445536E-02 0.21837068E+02</pdfrwt>
<pdfrwt beam="2">  1       21 0.12843203E-01 0.21837068E+02</pdfrwt>
<totfact> 0.12131479E+08</totfact>
</mgrwt>
</event>
<event>
 4    1  0.9374408E+003  0.5089350E+02  0.7546771E-02  0.1440581E+00
         21   -1    0    0  502  501  0.00000000000E+00  0.00000000000E+00  0.17527897292E+02  0.17527897292E+02  0.00000000000E+00 0. -1.
         21   -1    0    0  503  502 -0.00000000000E+00 -0.00000000000E+00 -0.17140494820E+03  0.17140494820E+03  0.00000000000E+00 0. -1.
         21    1    1    2  503  504  0.45801163395E+02 -0.22190127506E+02 -0.11201503858E+03  0.12303461788E+03  0.00000000000E+00 0. -1.
         21    1    1    2  504  501 -0.45801163395E+02  0.22190127506E+02 -0.41862012324E+02  0.65898227616E+02  0.00000000000E+00 0. -1.
<mgrwt>
<rscale>  2 0.50893500E+02</rscale>
<asrwt>0</asrwt>
<pdfrwt beam="1">  1       21 0.26965995E-02 0.50893500E+02</pdfrwt>
<pdfrwt beam="2">  1       21 0.26369993E-01 0.50893500E+02</pdfrwt>
<totfact> 0.93246887E+06</totfact>
</mgrwt>
</event>
<event>
 4    1  0.9374408E+003  0.2552104E+02  0.7546771E-02  0.1653629E+00
         21   -1    0    0  502  501  0.00000000000E+00  0.00000000000E+00  0.19790898512E+03  0.19790898512E+03  0.00000000000E+00 0.  1.
         21   -1    0    0  504  502 -0.00000000000E+00 -0.00000000000E+00 -0.12580036055E+02  0.12580036055E+02  0.00000000000E+00 0.  1.
         21    1    1    2  503  501  0.84989236722E+01 -0.24064325113E+02  0.22280786235E+01  0.25618114316E+02  0.00000000000E+00 0.  1.
         21    1    1    2  504  503 -0.84989236722E+01  0.24064325113E+02  0.18310087044E+03  0.18487090685E+03  0.00000000000E+00 0.  1.
<mgrwt>
<rscale>  2 0.25521039E+02</rscale>
<asrwt>0</asrwt>
<pdfrwt beam="1">  1       21 0.30447534E-01 0.25521039E+02</pdfrwt>
<pdfrwt beam="2">  1       21 0.19353903E-02 0.25521039E+02</pdfrwt>
<totfact> 0.10906001E+07</totfact>
</mgrwt>
</event>
<event>
 4    1  0.9374408E+003  0.3385933E+02  0.7546771E-02  0.1558970E+00
         21   -1    0    0  502  501  0.00000000000E+00  0.00000000000E+00  0.22781295621E+04  0.22781295621E+04  0.00000000000E+00 0.  1.
         21   -1    0    0  503  502 -0.00000000000E+00 -0.00000000000E+00 -0.12448317792E+01  0.12448317792E+01  0.00000000000E+00 0.  1.
         21    1    1    2  503  504 -0.17418071412E+02 -0.29035585692E+02  0.20180959835E+04  0.20183800071E+04  0.00000000000E+00 0. -1.
         21    1    1    2  504  501  0.17418071412E+02  0.29035585692E+02  0.25878874678E+03  0.26099438674E+03  0.00000000000E+00 0. -1.
<mgrwt>
<rscale>  2 0.33859333E+02</rscale>
<asrwt>0</asrwt>
<pdfrwt beam="1">  1       21 0.35047813E+00 0.33859333E+02</pdfrwt>
<pdfrwt beam="2">  1       21 0.19151440E-03 0.33859333E+02</pdfrwt>
<totfact> 0.10450757E+06</totfact>
</mgrwt>
</event>
<event>
 4    1  0.9374408E+003  0.4563454E+02  0.7546771E-02  0.1470419E+00
         21   -1    0    0  503  501  0.00000000000E+00  0.00000000000E+00  0.15105453672E+02  0.15105453672E+02  0.00000000000E+00 0. -1.
         21   -1    0    0  501  502 -0.00000000000E+00 -0.00000000000E+00 -0.20692036128E+03  0.20692036128E+03  0.00000000000E+00 0. -1.
         21    1    1    2  503  504  0.35067382643E+02 -0.29202560280E+02 -0.31775999539E+02  0.55607778224E+02  0.00000000000E+00 0.  1.
         21    1    1    2  504  502 -0.35067382643E+02  0.29202560280E+02 -0.16003890807E+03  0.16641803673E+03  0.00000000000E+00 0.  1.
<mgrwt>
<rscale>  2 0.45634536E+02</rscale>
<asrwt>0</asrwt>
<pdfrwt beam="1">  1       21 0.23239161E-02 0.45634536E+02</pdfrwt>
<pdfrwt beam="2">  1       21 0.31833899E-01 0.45634536E+02</pdfrwt>
<totfact> 0.82065253E+06</totfact>
</mgrwt>
</event>
<event>
 4    1  0.9374408E+003  0.2132033E+02  0.7546771E-02  0.1720279E+00
         21   -1    0    0  503  501  0.00000000000E+00  0.00000000000E+00  0.10096571268E+02  0.10096571268E+02  0.00000000000E+00 0.  1.
         21   -1    0    0  501  502 -0.00000000000E+00 -0.00000000000E+00 -0.15170016684E+03  0.15170016684E+03  0.00000000000E+00 0.  1.
         21    1    1    2  503  504  0.13653887447E+02 -0.16374607536E+02 -0.13864194955E+03  0.14027168848E+03  0.00000000000E+00 0.  1.
         21    1    1    2  504  502 -0.13653887447E+02  0.16374607536E+02 -0.29616460248E+01  0.21525049629E+02  0.00000000000E+00 0.  1.
<mgrwt>
<rscale>  2 0.21320329E+02</rscale>
<asrwt>0</asrwt>
<pdfrwt beam="1">  1       21 0.15533186E-02 0.21320329E+02</pdfrwt>
<pdfrwt beam="2">  1       21 0.23338488E-01 0.21320329E+02</pdfrwt>
<totfact> 0.23723604E+07</totfact>
</mgrwt>
</event>
<event>
 4    1  0.9374408E+003  0.3717777E+02  0.7546771E-02  0.1530070E+00
         21   -1    0    0  502  501  0.00000000000E+00  0.00000000000E+00  0.36663019494E+02  0.36663019494E+02  0.00000000000E+00 0. -1.
         21   -1    0    0  503  502 -0.00000000000E+00 -0.00000000000E+00 -0.78869296284E+02  0.78869296284E+02  0.00000000000E+00 0. -1.
         21    1    1    2  503  504 -0.30062726658E+02  0.21872787864E+02 -0.62838826826E+02  0.73013043629E+02  0.00000000000E+00 0. -1.
         21    1    1    2  504  501  0.30062726658E+02 -0.21872787864E+02  0.20632550036E+02  0.42519272149E+02  0.00000000000E+00 0. -1.
<mgrwt>
<rscale>  2 0.37177767E+02</rscale>
<asrwt>0</asrwt>
<pdfrwt beam="1">  1       21 0.56404646E-02 0.37177767E+02</pdfrwt>
<pdfrwt beam="2">  1       21 0.12133738E-01 0.37177767E+02</pdfrwt>
<totfact> 0.10803648E+07</totfact>
</mgrwt>
</event>
<event>
 4    1  0.9374408E+003  0.4002151E+02  0.7546771E-02  0.1508053E+00
         21   -1    0    0  502  501  0.00000000000E+00  0.00000000000E+00  0.32278524517E+03  0.32278524517E+03  0.00000000000E+00 0. -1.
         21   -1    0    0  504  502 -0.00000000000E+00 -0.00000000000E+00 -0.13969885657E+02  0.13969885657E+02  0.00000000000E+00 0. -1.
         21    1    1    2  503  501 -0.35271832583E+02 -0.18910819308E+02  0.19202077777E+02  0.44389650276E+02  0.00000000000E+00 0.  1.
         21    1    1    2  504  503  0.35271832583E+02  0.18910819308E+02  0.28961328173E+03  0.29236548055E+03  0.00000000000E+00 0.  1.
<mgrwt>
<rscale>  2 0.40021510E+02</rscale>
<asrwt>0</asrwt>
<pdfrwt beam="1">  1       21 0.49659263E-01 0.40021510E+02</pdfrwt>
<pdfrwt beam="2">  1       21 0.21492134E-02 0.40021510E+02</pdfrwt>
<totfact> 0.38787416E+06</totfact>
</mgrwt>
</event>
<event>
 4    1  0.9374408E+003  0.4164820E+02  0.7546771E-02  0.1496421E+00
         21   -1    0    0  504  501  0.00000000000E+00  0.00000000000E+00  0.83938861132E+02  0.83938861132E+02  0.00000000000E+00 0. -1.
         21   -1    0    0  501  502 -0.00000000000E+00 -0.00000000000E+00 -0.36541375307E+02  0.36541375307E+02  0.00000000000E+00 0. -1.
         21    1    1    2  503  502 -0.41444252492E+02 -0.41166055059E+01 -0.16008795967E+02  0.44618987594E+02  0.00000000000E+00 0. -1.
         21    1    1    2  504  503  0.41444252492E+02  0.41166055059E+01  0.63406281793E+02  0.75861248845E+02  0.00000000000E+00 0. -1.
<mgrwt>
<rscale>  2 0.41648199E+02</rscale>
<asrwt>0</asrwt>
<pdfrwt beam="1">  1       21 0.12913671E-01 0.41648199E+02</pdfrwt>
<pdfrwt beam="2">  1       21 0.56217501E-02 0.41648199E+02</pdfrwt>
<totfact> 0.99177846E+06</totfact>
</mgrwt>
</event>
<event>
 4    1  0.9374408E+003  0.2165991E+02  0.7546771E-02  0.1714201E+00
         21   -1    0    0  503  501  0.00000000000E+00  0.00000000000E+00  0.22570279689E+01  0.22570279689E+01  0.00000000000E+00 0. -1.
         21   -1    0    0  501  502 -0.00000000000E+00 -0.00000000000E+00 -0.20944221628E+03  0.20944221628E+03  0.00000000000E+00 0. -1.
         21    1    1    2  503  504 -0.21637011271E+02  0.99569755076E+00 -0.94400066992E+02  0.96853106911E+02  0.00000000000E+00 0.  1.
         21    1    1    2  504  502  0.21637011271E+02 -0.99569755076E+00 -0.11278512132E+03  0.11484613734E+03  0.00000000000E+00 0.  1.
<mgrwt>
<rscale>  2 0.21659909E+02</rscale>
<asrwt>0</asrwt>
<pdfrwt beam="1">  1       21 0.34723507E-03 0.21659909E+02</pdfrwt>
<pdfrwt beam="2">  1       21 0.32221880E-01 0.21659909E+02</pdfrwt>
<totfact> 0.12377220E+08</totfact>
</mgrwt>
</event>
<event>
 4    1  0.9374408E+003  0.2537804E+02  0.7546771E-02  0.1655631E+00
         21   -1    0    0  504  501  0.00000000000E+00  0.00000000000E+00  0.11983404216E+03  0.11983404216E+03  0.00000000000E+00 0.  1.
         21   -1    0    0  501  502 -0.00000000000E+00 -0.00000000000E+00 -0.13871036409E+02  0.13871036409E+02  0.00000000000E+00 0.  1.
         21    1    1    2  503  502 -0.22673239300E+02  0.11400394173E+02  0.65940902128E+00  0.25386602528E+02  0.00000000000E+00 0.  1.
         21    1    1    2  504  503  0.22673239300E+02 -0.11400394173E+02  0.10530359673E+03  0.10831847604E+03  0.00000000000E+00 0.  1.
<mgrwt>
<rscale>  2 0.25378037E+02</rscale>
<asrwt>0</asrwt>
<pdfrwt beam="1">  1       21 0.18436006E-01 0.25378037E+02</pdfrwt>
<pdfrwt beam="2">  1       21 0.21340057E-02 0.25378037E+02</pdfrwt>
<totfact> 0.22916855E+07</totfact>
</mgrwt>
</event>
<event>
 4    1  0.9374408E+003  0.2616622E+02  0.7546771E-02  0.1644795E+00
         21   -1    0    0  503  501  0.00000000000E+00  0.00000000000E+00  0.30395783909E+02  0.30395783909E+02  0.00000000000E+00 0. -1.
         21   -1    0    0  501  502 -0.00000000000E+00 -0.00000000000E+00 -0.65844859335E+02  0.65844859335E+02  0.00000000000E+00 0. -1.
         21    1    1    2  503  504 -0.92717713177E+00 -0.26149789589E+02  0.21306499625E+02  0.33743711700E+02  0.00000000000E+00 0. -1.
         21    1    1    2  504  502  0.92717713177E+00  0.26149789589E+02 -0.56755575051E+02  0.62496931544E+02  0.00000000000E+00 0. -1.
<mgrwt>
<rscale>  2 0.26166222E+02</rscale>
<asrwt>0</asrwt>
<pdfrwt beam="1">  1       21 0.46762745E-02 0.26166222E+02</pdfrwt>
<pdfrwt beam="2">  1       21 0.10129978E-01 0.26166222E+02</pdfrwt>
<totfact> 0.18648667E+07</totfact>
</mgrwt>
</event>
<event>
 4    1  0.9374408E+003  0.2588837E+02  0.7546771E-02  0.1648560E+00
         21   -1    0    0  502  501  0.00000000000E+00  0.00000000000E+00  0.34706537519E+01  0.34706537519E+01  0.00000000000E+00 0.  1.
         21   -1    0    0  503  502 -0.00000000000E+00 -0.00000000000E+00 -0.34172301476E+03  0.34172301476E+03  0.00000000000E+00 0.  1.
         21    1    1    2  503  504 -0.24044389607E+02 -0.95955851504E+01 -0.28294874118E+03  0.28413060036E+03  0.00000000000E+00 0.  1.
         21    1    1    2  504  501  0.24044389607E+02  0.95955851504E+01 -0.55303619830E+02  0.61063068153E+02  0.00000000000E+00 0.  1.
<mgrwt>
<rscale>  2 0.25888374E+02</rscale>
<asrwt>0</asrwt>
<pdfrwt beam="1">  1       21 0.53394680E-03 0.25888374E+02</pdfrwt>
<pdfrwt beam="2">  1       21 0.52572765E-01 0.25888374E+02</pdfrwt>
<totfact> 0.27122281E+07</totfact>
</mgrwt>
</event>
<event>
 4    1  0.9374408E+003  0.2419075E+02  0.7546771E-02  0.1672905E+00
         21   -1    0    0  502  501  0.00000000000E+00  0.00000000000E+00  0.23414761800E+03  0.23414761800E+03  0.00000000000E+00 0.  1.
         21   -1    0    0  504  502 -0.00000000000E+00 -0.00000000000E+00 -0.90411689588E+01  0.90411689588E+01  0.00000000000E+00 0.  1.
         21    1    1    2  503  501  0.14545206930E+02 -0.19329497670E+02  0.21598499696E+03  0.21733548132E+03  0.00000000000E+00 0.  1.
         21    1    1    2  504  503 -0.14545206930E+02  0.19329497670E+02  0.91214520793E+01  0.25853305646E+02  0.00000000000E+00 0.  1.
<mgrwt>
<rscale>  2 0.24190753E+02</rscale>
<asrwt>0</asrwt>
<pdfrwt beam="1">  1       21 0.36022706E-01 0.24190753E+02</pdfrwt>
<pdfrwt beam="2">  1       21 0.13909492E-02 0.24190753E+02</pdfrwt>
<totfact> 0.13121737E+07</totfact>
</mgrwt>
</event>
<event>
 4    1  0.9374408E+003  0.2338684E+02  0.7546771E-02  0.1685315E+00
         21   -1    0    0  503  501  0.00000000000E+00  0.00000000000E+00  0.18779878495E+01  0.18779878495E+01  0.00000000000E+00 0. -1.
         21   -1    0    0  501  502 -0.00000000000E+00 -0.00000000000E+00 -0.65631412149E+03  0.65631412149E+03  0.00000000000E+00 0. -1.
         21    1    1    2  503  504 -0.20796922663E+02 -0.10697308516E+02 -0.81771154716E+02  0.85049786274E+02  0.00000000000E+00 0. -1.
         21    1    1    2  504  502  0.20796922663E+02  0.10697308516E+02 -0.57266497893E+03  0.57314232307E+03  0.00000000000E+00 0. -1.
<mgrwt>
<rscale>  2 0.23386842E+02</rscale>
<asrwt>0</asrwt>
<pdfrwt beam="1">  1       21 0.28892058E-03 0.23386842E+02</pdfrwt>
<pdfrwt beam="2">  1       21 0.10097162E+00 0.23386842E+02</pdfrwt>
<totfact> 0.16955442E+07</totfact>
</mgrwt>
</event>
<event>
 4    1  0.9374408E+003  0.2668809E+02  0.7546771E-02  0.1637876E+00
         21   -1    0    0  502  501  0.00000000000E+00  0.00000000000E+00  0.15721087349E+02  0.15721087349E+02  0.00000000000E+00 0.  1.
         21   -1    0    0  504  502 -0.00000000000E+00 -0.00000000000E+00 -0.78449151128E+02  0.78449151128E+02  0.00000000000E+00 0.  1.
         21    1    1    2  503  501 -0.22897338128E+02 -0.13710071732E+02 -0.61968772920E+02  0.67471349308E+02  0.00000000000E+00 0. -1.
         21    1    1    2  504  503  0.22897338128E+02  0.13710071732E+02 -0.75929085858E+00  0.26698889169E+02  0.00000000000E+00 0. -1.
<mgrwt>
<rscale>  2 0.26688090E+02</rscale>
<asrwt>0</asrwt>
<pdfrwt beam="1">  1       21 0.24186288E-02 0.26688090E+02</pdfrwt>
<pdfrwt beam="2">  1       21 0.12069100E-01 0.26688090E+02</pdfrwt>
<totfact> 0.39401053E+07</totfact>
</mgrwt>
</event>
<event>
 4    1  0.9374408E+003  0.2569024E+02  0.7546771E-02  0.1651281E+00
         21   -1    0    0  503  501  0.00000000000E+00  0.00000000000E+00  0.26948602605E+02  0.26948602605E+02  0.00000000000E+00 0. -1.
         21   -1    0    0  501  502 -0.00000000000E+00 -0.00000000000E+00 -0.31278022814E+02  0.31278022814E+02  0.00000000000E+00 0. -1.
         21    1    1    2  503  504 -0.25609462772E+02 -0.20357036257E+01  0.11397266033E+02  0.28104916754E+02  0.00000000000E+00 0.  1.
         21    1    1    2  504  502  0.25609462772E+02  0.20357036257E+01 -0.15726686242E+02  0.30121708665E+02  0.00000000000E+00 0.  1.
<mgrwt>
<rscale>  2 0.25690245E+02</rscale>
<asrwt>0</asrwt>
<pdfrwt beam="1">  1       21 0.41459388E-02 0.25690245E+02</pdfrwt>
<pdfrwt beam="2">  1       21 0.48120035E-02 0.25690245E+02</pdfrwt>
<totfact> 0.75556818E+07</totfact>
</mgrwt>
</event>
<event>
 4    1  0.9374408E+003  0.3685770E+02  0.7546771E-02  0.1532697E+00
         21   -1    0    0  502  501  0.00000000000E+00  0.00000000000E+00  0.71928157565E+01  0.71928157565E+01  0.00000000000E+00 0.  1.
         21   -1    0    0  504  502 -0.00000000000E+00 -0.00000000000E+00 -0.34005697478E+03  0.34005697478E+03  0.00000000000E+00 0.  1.
         21    1    1    2  503  501 -0.20032012634E+02 -0.30938788393E+02 -0.50661894508E+02  0.62650759872E+02  0.00000000000E+00 0. -1.
         21    1    1    2  504  503  0.20032012634E+02  0.30938788393E+02 -0.28220226451E+03  0.28459903066E+03  0.00000000000E+00 0. -1.
<mgrwt>
<rscale>  2 0.36857701E+02</rscale>
<asrwt>0</asrwt>
<pdfrwt beam="1">  1       21 0.11065868E-02 0.36857701E+02</pdfrwt>
<pdfrwt beam="2">  1       21 0.52316467E-01 0.36857701E+02</pdfrwt>
<totfact> 0.96816553E+06</totfact>
</mgrwt>
</event>
<event>
 4    1  0.9374408E+003  0.2282485E+02  0.7546771E-02  0.1694365E+00
         21   -1    0    0  502  501  0.00000000000E+00  0.00000000000E+00  0.52468956107E+03  0.52468956107E+03  0.00000000000E+00 0.  1.
         21   -1    0    0  503  502 -0.00000000000E+00 -0.00000000000E+00 -0.25828050726E+01  0.25828050726E+01  0.00000000000E+00 0.  1.
         21    1    1    2  503  504 -0.19469450078E+02  0.11912774463E+02  0.46789710108E+03  0.46845348849E+03  0.00000000000E+00 0.  1.
         21    1    1    2  504  501  0.19469450078E+02 -0.11912774463E+02  0.54209654920E+02  0.58818877652E+02  0.00000000000E+00 0.  1.
<mgrwt>
<rscale>  2 0.22824848E+02</rscale>
<asrwt>0</asrwt>
<pdfrwt beam="1">  1       21 0.80721386E-01 0.22824848E+02</pdfrwt>
<pdfrwt beam="2">  1       21 0.39735504E-03 0.22824848E+02</pdfrwt>
<totfact> 0.17121645E+07</totfact>
</mgrwt>
</event>
<event>
 4    1  0.9374408E+003  0.2161461E+02  0.7546771E-02  0.1715004E+00
         21   -1    0    0  503  501  0.00000000000E+00  0.00000000000E+00  0.23657132155E+01  0.23657132155E+01  0.00000000000E+00 0.  1.
         21   -1    0    0  501  502 -0.00000000000E+00 -0.00000000000E+00 -0.23125330992E+03  0.23125330992E+03  0.00000000000E+00 0.  1.
         21    1    1    2  503  504 -0.10991413472E+02  0.18611293363E+02 -0.15908057959E+03  0.16054227547E+03  0.00000000000E+00 0.  1.
         21    1    1    2  504  502  0.10991413472E+02 -0.18611293363E+02 -0.69807017114E+02  0.73076747664E+02  0.00000000000E+00 0.  1.
<mgrwt>
<rscale>  2 0.21614611E+02</rscale>
<asrwt>0</asrwt>
<pdfrwt beam="1">  1       21 0.36395582E-03 0.21614611E+02</pdfrwt>
<pdfrwt beam="2">  1       21 0.35577438E-01 0.21614611E+02</pdfrwt>
<totfact> 0.96249173E+07</totfact>
</mgrwt>
</event>
<event>
 4    1  0.9374408E+003  0.3741515E+02  0.7546771E-02  0.1528143E+00
         21   -1    0    0  502  501  0.00000000000E+00  0.00000000000E+00  0.39669319056E+01  0.39669319056E+01  0.00000000000E+00 0. -1.
         21   -1    0    0  504  502 -0.00000000000E+00 -0.00000000000E+00 -0.36294327401E+03  0.36294327401E+03  0.00000000000E+00 0. -1.
         21    1    1    2  503  501 -0.24591375350E+02 -0.28198540991E+02 -0.21001970553E+03  0.21332644039E+03  0.00000000000E+00 0.  1.
         21    1    1    2  504  503  0.24591375350E+02  0.28198540991E+02 -0.14895663657E+03  0.15358376553E+03  0.00000000000E+00 0.  1.
<mgrwt>
<rscale>  2 0.37415150E+02</rscale>
<asrwt>0</asrwt>
<pdfrwt beam="1">  1       21 0.61029736E-03 0.37415150E+02</pdfrwt>
<pdfrwt beam="2">  1       21 0.55837414E-01 0.37415150E+02</pdfrwt>
<totfact> 0.21004043E+07</totfact>
</mgrwt>
</event>
<event>
 4    1  0.9374408E+003  0.2562616E+02  0.7546771E-02  0.1652168E+00
         21   -1    0    0  502  501  0.00000000000E+00  0.00000000000E+00  0.24668099745E+02  0.24668099745E+02  0.00000000000E+00 0.  1.
         21   -1    0    0  503  502 -0.00000000000E+00 -0.00000000000E+00 -0.32882030711E+02  0.32882030711E+02  0.00000000000E+00 0.  1.
         21    1    1    2  503  504 -0.85375466751E+01  0.24162167187E+02 -0.16662785882E+02  0.30567114024E+02  0.00000000000E+00 0. -1.
         21    1    1    2  504  501  0.85375466751E+01 -0.24162167187E+02  0.84488549155E+01  0.26983016432E+02  0.00000000000E+00 0. -1.
<mgrwt>
<rscale>  2 0.25626159E+02</rscale>
<asrwt>0</asrwt>
<pdfrwt beam="1">  1       21 0.37950923E-02 0.25626159E+02</pdfrwt>
<pdfrwt beam="2">  1       21 0.50587739E-02 0.25626159E+02</pdfrwt>
<totfact> 0.80174427E+07</totfact>
</mgrwt>
</event>
<event>
 4    1  0.9374408E+003  0.2114591E+02  0.7546771E-02  0.1723456E+00
         21   -1    0    0  502  501  0.00000000000E+00  0.00000000000E+00  0.23924277166E+03  0.23924277166E+03  0.00000000000E+00 0. -1.
         21   -1    0    0  503  502 -0.00000000000E+00 -0.00000000000E+00 -0.25003429806E+01  0.25003429806E+01  0.00000000000E+00 0. -1.
         21    1    1    2  503  504 -0.15982126405E+02 -0.13846337514E+02  0.57634644008E+02  0.61391380641E+02  0.00000000000E+00 0. -1.
         21    1    1    2  504  501  0.15982126405E+02  0.13846337514E+02  0.17910778467E+03  0.18035173400E+03  0.00000000000E+00 0. -1.
<mgrwt>
<rscale>  2 0.21145908E+02</rscale>
<asrwt>0</asrwt>
<pdfrwt beam="1">  1       21 0.36806562E-01 0.21145908E+02</pdfrwt>
<pdfrwt beam="2">  1       21 0.38466834E-03 0.21145908E+02</pdfrwt>
<totfact> 0.82866563E+07</totfact>
</mgrwt>
</event>
<event>
 4    1  0.9374408E+003  0.2094786E+02  0.7546771E-02  0.1727110E+00
         21   -1    0    0  502  501  0.00000000000E+00  0.00000000000E+00  0.34697385071E+03  0.34697385071E+03  0.00000000000E+00 0.  1.
         21   -1    0    0  504  502 -0.00000000000E+00 -0.00000000000E+00 -0.35427884438E+01  0.35427884438E+01  0.00000000000E+00 0.  1.
         21    1    1    2  503  501  0.19331046316E+02  0.80698996597E+01  0.31225320200E+03  0.31295506833E+03  0.00000000000E+00 0. -1.
         21    1    1    2  504  503 -0.19331046316E+02 -0.80698996597E+01  0.31177860265E+02  0.37561570826E+02  0.00000000000E+00 0. -1.
<mgrwt>
<rscale>  2 0.20947855E+02</rscale>
<asrwt>0</asrwt>
<pdfrwt beam="1">  1       21 0.53380565E-01 0.20947855E+02</pdfrwt>
<pdfrwt beam="2">  1       21 0.54504465E-03 0.20947855E+02</pdfrwt>
<totfact> 0.24428860E+07</totfact>
</mgrwt>
</event>
<event>
 4    1  0.9374408E+003  0.3440325E+02  0.7546771E-02  0.1553965E+00
         21   -1    0    0  504  501  0.00000000000E+00  0.00000000000E+00  0.59086992623E+01  0.59086992623E+01  0.00000000000E+00 0.  1.
         21   -1    0    0  501  502 -0.00000000000E+00 -0.00000000000E+00 -0.38977547138E+03  0.38977547138E+03  0.00000000000E+00 0.  1.
         21    1    1    2  503  502  0.58986233751E+00  0.34398197034E+02 -0.53998515851E+02  0.64026741374E+02  0.00000000000E+00 0.  1.
         21    1    1    2  504  503 -0.58986233751E+00 -0.34398197034E+02 -0.32986825626E+03  0.33165742927E+03  0.00000000000E+00 0.  1.
<mgrwt>
<rscale>  2 0.34403254E+02</rscale>
<asrwt>0</asrwt>
<pdfrwt beam="1">  1       21 0.90903042E-03 0.34403254E+02</pdfrwt>
<pdfrwt beam="2">  1       21 0.59965473E-01 0.34403254E+02</pdfrwt>
<totfact> 0.98363900E+06</totfact>
</mgrwt>
</event>
<event>
 4    1  0.9374408E+003  0.2006124E+02  0.7546771E-02  0.1744113E+00
         21   -1    0    0  502  501  0.00000000000E+00  0.00000000000E+00  0.60056994263E+01  0.60056994263E+01  0.00000000000E+00 0. -1.
         21   -1    0    0  503  502 -0.00000000000E+00 -0.00000000000E+00 -0.82057097456E+02  0.82057097456E+02  0.00000000000E+00 0. -1.
         21    1    1    2  503  504 -0.85929725956E+01  0.18127717507E+02 -0.19171704698E+02  0.27749010452E+02  0.00000000000E+00 0. -1.
         21    1    1    2  504  501  0.85929725956E+01 -0.18127717507E+02 -0.56879693332E+02  0.60313786431E+02  0.00000000000E+00 0. -1.
<mgrwt>
<rscale>  2 0.20061239E+02</rscale>
<asrwt>0</asrwt>
<pdfrwt beam="1">  1       21 0.92395379E-03 0.20061239E+02</pdfrwt>
<pdfrwt beam="2">  1       21 0.12624168E-01 0.20061239E+02</pdfrwt>
<totfact> 0.14623593E+08</totfact>
</mgrwt>
</event>
<event>
 4    1  0.9374408E+003  0.5549642E+02  0.7546771E-02  0.1417766E+00
         21   -1    0    0  504  501  0.00000000000E+00  0.00000000000E+00  0.26052111909E+02  0.26052111909E+02  0.00000000000E+00 0. -1.
         21   -1    0    0  501  502 -0.00000000000E+00 -0.00000000000E+00 -0.26292986652E+03  0.26292986652E+03  0.00000000000E+00 0. -1.
         21    1    1    2  503  502 -0.42008405524E+02 -0.36264952154E+02 -0.22563312371E+03  0.23235782622E+03  0.00000000000E+00 0.  1.
         21    1    1    2  504  503  0.42008405524E+02  0.36264952154E+02 -0.11244630900E+02  0.56624152210E+02  0.00000000000E+00 0.  1.
<mgrwt>
<rscale>  2 0.55496422E+02</rscale>
<asrwt>0</asrwt>
<pdfrwt beam="1">  1       21 0.40080174E-02 0.55496422E+02</pdfrwt>
<pdfrwt beam="2">  1       21 0.40450747E-01 0.55496422E+02</pdfrwt>
<totfact> 0.22050236E+06</totfact>
</mgrwt>
</event>
<event>
 4    1  0.9374408E+003  0.3035201E+02  0.7546771E-02  0.1594230E+00
         21   -1    0    0  503  501  0.00000000000E+00  0.00000000000E+00  0.28650774310E+01  0.28650774310E+01  0.00000000000E+00 0. -1.
         21   -1    0    0  501  502 -0.00000000000E+00 -0.00000000000E+00 -0.38008209017E+03  0.38008209017E+03  0.00000000000E+00 0. -1.
         21    1    1    2  503  504  0.27943660038E+02  0.11848909079E+02 -0.11346452604E+03  0.11745400569E+03  0.00000000000E+00 0. -1.
         21    1    1    2  504  502 -0.27943660038E+02 -0.11848909079E+02 -0.26375248670E+03  0.26549316192E+03  0.00000000000E+00 0. -1.
<mgrwt>
<rscale>  2 0.30352014E+02</rscale>
<asrwt>0</asrwt>
<pdfrwt beam="1">  1       21 0.44078099E-03 0.30352014E+02</pdfrwt>
<pdfrwt beam="2">  1       21 0.58474188E-01 0.30352014E+02</pdfrwt>
<totfact> 0.30062431E+07</totfact>
</mgrwt>
</event>
<event>
 4    1  0.9374408E+003  0.2095993E+02  0.7546771E-02  0.1726886E+00
         21   -1    0    0  503  501  0.00000000000E+00  0.00000000000E+00  0.10862633484E+03  0.10862633484E+03  0.00000000000E+00 0. -1.
         21   -1    0    0  501  502 -0.00000000000E+00 -0.00000000000E+00 -0.52996206638E+01  0.52996206638E+01  0.00000000000E+00 0. -1.
         21    1    1    2  503  504  0.55542254181E+01  0.20210618288E+02  0.79386725571E+02  0.82107068566E+02  0.00000000000E+00 0.  1.
         21    1    1    2  504  502 -0.55542254181E+01 -0.20210618288E+02  0.23939988607E+02  0.31818886940E+02  0.00000000000E+00 0.  1.
<mgrwt>
<rscale>  2 0.20959926E+02</rscale>
<asrwt>0</asrwt>
<pdfrwt beam="1">  1       21 0.16711742E-01 0.20959926E+02</pdfrwt>
<pdfrwt beam="2">  1       21 0.81532633E-03 0.20959926E+02</pdfrwt>
<totfact> 0.11112508E+08</totfact>
</mgrwt>
</event>
<event>
 4    1  0.9374408E+003  0.2609641E+02  0.7546771E-02  0.1645736E+00
         21   -1    0    0  504  501  0.00000000000E+00  0.00000000000E+00  0.23811539022E+02  0.23811539022E+02  0.00000000000E+00 0. -1.
         21   -1    0    0  501  502 -0.00000000000E+00 -0.00000000000E+00 -0.47647140694E+02  0.47647140694E+02  0.00000000000E+00 0. -1.
         21    1    1    2  503  502 -0.70802850272E+01  0.25117562448E+02 -0.34507765197E+02  0.43264399202E+02  0.00000000000E+00 0. -1.
         21    1    1    2  504  503  0.70802850272E+01 -0.25117562448E+02  0.10672163524E+02  0.28194280514E+02  0.00000000000E+00 0. -1.
<mgrwt>
<rscale>  2 0.26096405E+02</rscale>
<asrwt>0</asrwt>
<pdfrwt beam="1">  1       21 0.36633137E-02 0.26096405E+02</pdfrwt>
<pdfrwt beam="2">  1       21 0.73303293E-02 0.26096405E+02</pdfrwt>
<totfact> 0.46775294E+07</totfact>
</mgrwt>
</event>
<event>
 4    1  0.9374408E+003  0.4156640E+02  0.7546771E-02  0.1496991E+00
         21   -1    0    0  502  501  0.00000000000E+00  0.00000000000E+00  0.10297783571E+03  0.10297783571E+03  0.00000000000E+00 0.  1.
         21   -1    0    0  504  502 -0.00000000000E+00 -0.00000000000E+00 -0.23053714218E+02  0.23053714218E+02  0.00000000000E+00 0.  1.
         21    1    1    2  503  501  0.26528384970E+02 -0.32000160796E+02  0.70837667128E+01  0.42165688075E+02  0.00000000000E+00 0. -1.
         21    1    1    2  504  503 -0.26528384970E+02  0.32000160796E+02  0.72840354782E+02  0.83865861856E+02  0.00000000000E+00 0. -1.
<mgrwt>
<rscale>  2 0.41566399E+02</rscale>
<asrwt>0</asrwt>
<pdfrwt beam="1">  1       21 0.15842744E-01 0.41566399E+02</pdfrwt>
<pdfrwt beam="2">  1       21 0.35467253E-02 0.41566399E+02</pdfrwt>
<totfact> 0.14650407E+07</totfact>
</mgrwt>
</event>
<event>
 4    1  0.9374408E+003  0.3259243E+02  0.7546771E-02  0.1571082E+00
         21   -1    0    0  504  501  0.00000000000E+00  0.00000000000E+00  0.48081035917E+02  0.48081035917E+02  0.00000000000E+00 0.  1.
         21   -1    0    0  501  502 -0.00000000000E+00 -0.00000000000E+00 -0.32530657618E+02  0.32530657618E+02  0.00000000000E+00 0.  1.
         21    1    1    2  503  502  0.31551311618E+02 -0.81719731764E+01  0.30605820570E+02  0.44709983932E+02  0.00000000000E+00 0. -1.
         21    1    1    2  504  503 -0.31551311618E+02  0.81719731764E+01 -0.15055442271E+02  0.35901709602E+02  0.00000000000E+00 0. -1.
<mgrwt>
<rscale>  2 0.32592429E+02</rscale>
<asrwt>0</asrwt>
<pdfrwt beam="1">  1       21 0.73970825E-02 0.32592429E+02</pdfrwt>
<pdfrwt beam="2">  1       21 0.50047166E-02 0.32592429E+02</pdfrwt>
<totfact> 0.29390974E+07</totfact>
</mgrwt>
</event>
<event>
 4    1  0.9374408E+003  0.2149247E+02  0.7546771E-02  0.1717180E+00
         21   -1    0    0  503  501  0.00000000000E+00  0.00000000000E+00  0.40665118903E+02  0.40665118903E+02  0.00000000000E+00 0. -1.
         21   -1    0    0  501  502 -0.00000000000E+00 -0.00000000000E+00 -0.89389353742E+02  0.89389353742E+02  0.00000000000E+00 0. -1.
         21    1    1    2  503  504  0.85475901492E+01  0.19719664790E+02 -0.85117310634E+02  0.87788854910E+02  0.00000000000E+00 0. -1.
         21    1    1    2  504  502 -0.85475901492E+01 -0.19719664790E+02  0.36393075795E+02  0.42265617736E+02  0.00000000000E+00 0. -1.
<mgrwt>
<rscale>  2 0.21492475E+02</rscale>
<asrwt>0</asrwt>
<pdfrwt beam="1">  1       21 0.62561722E-02 0.21492475E+02</pdfrwt>
<pdfrwt beam="2">  1       21 0.13752208E-01 0.21492475E+02</pdfrwt>
<totfact> 0.67538482E+06</totfact>
</mgrwt>
</event>
<event>
 4    1  0.9374408E+003  0.3728436E+02  0.7546771E-02  0.1529203E+00
         21   -1    0    0  503  501  0.00000000000E+00  0.00000000000E+00  0.48346189083E+02  0.48346189083E+02  0.00000000000E+00 0.  1.
         21   -1    0    0  501  502 -0.00000000000E+00 -0.00000000000E+00 -0.39819658720E+02  0.39819658720E+02  0.00000000000E+00 0.  1.
         21    1    1    2  503  504 -0.17347044660E+02  0.33003084608E+02 -0.18975845433E+02  0.41835466556E+02  0.00000000000E+00 0.  1.
         21    1    1    2  504  502  0.17347044660E+02 -0.33003084608E+02  0.27502375796E+02  0.46330381247E+02  0.00000000000E+00 0.  1.
<mgrwt>
<rscale>  2 0.37284361E+02</rscale>
<asrwt>0</asrwt>
<pdfrwt beam="1">  1       21 0.74378752E-02 0.37284361E+02</pdfrwt>
<pdfrwt beam="2">  1       21 0.61261014E-02 0.37284361E+02</pdfrwt>
<totfact> 0.21490736E+07</totfact>
</mgrwt>
</event>
<event>
 4    1  0.9374408E+003  0.2246778E+02  0.7546771E-02  0.1700285E+00
         21   -1    0    0  504  501  0.00000000000E+00  0.00000000000E+00  0.18193892575E+03  0.18193892575E+03  0.00000000000E+00 0.  1.
         21   -1    0    0  501  502 -0.00000000000E+00 -0.00000000000E+00 -0.37968155820E+01  0.37968155820E+01  0.00000000000E+00 0.  1.
         21    1    1    2  503  502 -0.12026937786E+02 -0.18977718989E+02  0.40883510306E+02  0.46650428352E+02  0.00000000000E+00 0. -1.
         21    1    1    2  504  503  0.12026937786E+02  0.18977718989E+02  0.13725859986E+03  0.13908531298E+03  0.00000000000E+00 0. -1.
<mgrwt>
<rscale>  2 0.22467778E+02</rscale>
<asrwt>0</asrwt>
<pdfrwt beam="1">  1       21 0.27990597E-01 0.22467778E+02</pdfrwt>
<pdfrwt beam="2">  1       21 0.58412562E-03 0.22467778E+02</pdfrwt>
<totfact> 0.75183602E+07</totfact>
</mgrwt>
</event>
<event>
 4    1  0.9374408E+003  0.2257352E+02  0.7546771E-02  0.1698518E+00
         21   -1    0    0  502  501  0.00000000000E+00  0.00000000000E+00  0.18745085030E+02  0.18745085030E+02  0.00000000000E+00 0. -1.
         21   -1    0    0  504  502 -0.00000000000E+00 -0.00000000000E+00 -0.56911580415E+02  0.56911580415E+02  0.00000000000E+00 0. -1.
         21    1    1    2  503  501 -0.20968481222E+02  0.83598101568E+01  0.82567034662E+01  0.24036155740E+02  0.00000000000E+00 0.  1.
         21    1    1    2  504  503  0.20968481222E+02 -0.83598101568E+01 -0.46423198851E+02  0.51620509705E+02  0.00000000000E+00 0.  1.
<mgrwt>
<rscale>  2 0.22573516E+02</rscale>
<asrwt>0</asrwt>
<pdfrwt beam="1">  1       21 0.28838593E-02 0.22573516E+02</pdfrwt>
<pdfrwt beam="2">  1       21 0.87556277E-02 0.22573516E+02</pdfrwt>
<totfact> 0.49074051E+07</totfact>
</mgrwt>
</event>
<event>
 4    1  0.9374408E+003  0.2597483E+02  0.7546771E-02  0.1647382E+00
         21   -1    0    0  503  501  0.00000000000E+00  0.00000000000E+00  0.13234031434E+03  0.13234031434E+03  0.00000000000E+00 0. -1.
         21   -1    0    0  501  502 -0.00000000000E+00 -0.00000000000E+00 -0.14557973694E+02  0.14557973694E+02  0.00000000000E+00 0. -1.
         21    1    1    2  503  504 -0.25312686765E+02 -0.58275103456E+01  0.11809878764E+03  0.12092152675E+03  0.00000000000E+00 0.  1.
         21    1    1    2  504  502  0.25312686765E+02  0.58275103456E+01 -0.31644699946E+00  0.25976761284E+02  0.00000000000E+00 0.  1.
<mgrwt>
<rscale>  2 0.25974834E+02</rscale>
<asrwt>0</asrwt>
<pdfrwt beam="1">  1       21 0.20360048E-01 0.25974834E+02</pdfrwt>
<pdfrwt beam="2">  1       21 0.22396883E-02 0.25974834E+02</pdfrwt>
<totfact> 0.17962443E+07</totfact>
</mgrwt>
</event>
<event>
 4    1  0.9374408E+003  0.4385547E+02  0.7546771E-02  0.1481616E+00
         21   -1    0    0  502  501  0.00000000000E+00  0.00000000000E+00  0.18676271525E+02  0.18676271525E+02  0.00000000000E+00 0. -1.
         21   -1    0    0  503  502 -0.00000000000E+00 -0.00000000000E+00 -0.16905380327E+03  0.16905380327E+03  0.00000000000E+00 0. -1.
         21    1    1    2  503  504 -0.35421409103E+02  0.25857809454E+02 -0.16507090813E+02  0.46859220861E+02  0.00000000000E+00 0. -1.
         21    1    1    2  504  501  0.35421409103E+02 -0.25857809454E+02 -0.13387044093E+03  0.14087085393E+03  0.00000000000E+00 0. -1.
<mgrwt>
<rscale>  2 0.43855473E+02</rscale>
<asrwt>0</asrwt>
<pdfrwt beam="1">  1       21 0.28732725E-02 0.43855473E+02</pdfrwt>
<pdfrwt beam="2">  1       21 0.26008277E-01 0.43855473E+02</pdfrwt>
<totfact> 0.84981490E+06</totfact>
</mgrwt>
</event>
<event>
 4    1  0.9374408E+003  0.2329152E+02  0.7546771E-02  0.1686828E+00
         21   -1    0    0  502  501  0.00000000000E+00  0.00000000000E+00  0.51582824250E+01  0.51582824250E+01  0.00000000000E+00 0. -1.
         21   -1    0    0  503  502 -0.00000000000E+00 -0.00000000000E+00 -0.17483221504E+03  0.17483221504E+03  0.00000000000E+00 0. -1.
         21    1    1    2  503  504 -0.21068891351E+02 -0.99295798301E+01 -0.14164484783E+03  0.14354705729E+03  0.00000000000E+00 0.  1.
         21    1    1    2  504  501  0.21068891351E+02  0.99295798301E+01 -0.28029084789E+02  0.36443440184E+02  0.00000000000E+00 0.  1.
<mgrwt>
<rscale>  2 0.23291516E+02</rscale>
<asrwt>0</asrwt>
<pdfrwt beam="1">  1       21 0.79358195E-03 0.23291516E+02</pdfrwt>
<pdfrwt beam="2">  1       21 0.26897263E-01 0.23291516E+02</pdfrwt>
<totfact> 0.51698907E+07</totfact>
</mgrwt>
</event>
<event>
 4    1  0.9374408E+003  0.2583698E+02  0.7546771E-02  0.1649263E+00
         21   -1    0    0  502  501  0.00000000000E+00  0.00000000000E+00  0.16866980896E+02  0.16866980896E+02  0.00000000000E+00 0. -1.
         21   -1    0    0  503  502 -0.00000000000E+00 -0.00000000000E+00 -0.43960155828E+02  0.43960155828E+02  0.00000000000E+00 0. -1.
         21    1    1    2  503  504 -0.18994538002E+02  0.17514487645E+02 -0.23149783750E+02  0.34690953274E+02  0.00000000000E+00 0. -1.
         21    1    1    2  504  501  0.18994538002E+02 -0.17514487645E+02 -0.39433911817E+01  0.26136183451E+02  0.00000000000E+00 0. -1.
<mgrwt>
<rscale>  2 0.25836984E+02</rscale>
<asrwt>0</asrwt>
<pdfrwt beam="1">  1       21 0.25949201E-02 0.25836984E+02</pdfrwt>
<pdfrwt beam="2">  1       21 0.67631009E-02 0.25836984E+02</pdfrwt>
<totfact> 0.91289580E+07</totfact>
</mgrwt>
</event>
<event>
 4    1  0.9374408E+003  0.2819264E+02  0.7546771E-02  0.1618971E+00
         21   -1    0    0  502  501  0.00000000000E+00  0.00000000000E+00  0.17995618263E+02  0.17995618263E+02  0.00000000000E+00 0. -1.
         21   -1    0    0  503  502 -0.00000000000E+00 -0.00000000000E+00 -0.74965649780E+02  0.74965649780E+02  0.00000000000E+00 0. -1.
         21    1    1    2  503  504  0.28529148732E+01 -0.28047923131E+02 -0.58277160798E+02  0.64738339382E+02  0.00000000000E+00 0.  1.
         21    1    1    2  504  501 -0.28529148732E+01  0.28047923131E+02  0.13071292815E+01  0.28222928661E+02  0.00000000000E+00 0.  1.
<mgrwt>
<rscale>  2 0.28192643E+02</rscale>
<asrwt>0</asrwt>
<pdfrwt beam="1">  1       21 0.27685566E-02 0.28192643E+02</pdfrwt>
<pdfrwt beam="2">  1       21 0.11533177E-01 0.28192643E+02</pdfrwt>
<totfact> 0.34879445E+07</totfact>
</mgrwt>
</event>
<event>
 4    1  0.9374408E+003  0.2834159E+02  0.7546771E-02  0.1617178E+00
         21   -1    0    0  503  501  0.00000000000E+00  0.00000000000E+00  0.57901031286E+01  0.57901031286E+01  0.00000000000E+00 0. -1.
         21   -1    0    0  501  502 -0.00000000000E+00 -0.00000000000E+00 -0.51580821898E+03  0.51580821898E+03  0.00000000000E+00 0. -1.
         21    1    1    2  503  504  0.10430865226E+02 -0.26352277164E+02 -0.32022167775E+02  0.42762889169E+02  0.00000000000E+00 0.  1.
         21    1    1    2  504  502 -0.10430865226E+02  0.26352277164E+02 -0.47799594808E+03  0.47883543294E+03  0.00000000000E+00 0.  1.
<mgrwt>
<rscale>  2 0.28341585E+02</rscale>
<asrwt>0</asrwt>
<pdfrwt beam="1">  1       21 0.89078524E-03 0.28341585E+02</pdfrwt>
<pdfrwt beam="2">  1       21 0.79355098E-01 0.28341585E+02</pdfrwt>
<totfact> 0.55322290E+06</totfact>
</mgrwt>
</event>
<event>
 4    1  0.9374408E+003  0.2302513E+02  0.7546771E-02  0.1691103E+00
         21   -1    0    0  503  501  0.00000000000E+00  0.00000000000E+00  0.90835827488E+01  0.90835827488E+01  0.00000000000E+00 0.  1.
         21   -1    0    0  501  502 -0.00000000000E+00 -0.00000000000E+00 -0.71716447947E+02  0.71716447947E+02  0.00000000000E+00 0.  1.
         21    1    1    2  503  504 -0.22232577663E+02 -0.59890761970E+01 -0.48748481608E+02  0.53912623775E+02  0.00000000000E+00 0. -1.
         21    1    1    2  504  502  0.22232577663E+02  0.59890761970E+01 -0.13884383590E+02  0.26887406920E+02  0.00000000000E+00 0. -1.
<mgrwt>
<rscale>  2 0.23025129E+02</rscale>
<asrwt>0</asrwt>
<pdfrwt beam="1">  1       21 0.13974743E-02 0.23025129E+02</pdfrwt>
<pdfrwt beam="2">  1       21 0.11033299E-01 0.23025129E+02</pdfrwt>
<totfact> 0.10235441E+08</totfact>
</mgrwt>
</event>
<event>
 4    1  0.9374408E+003  0.2245746E+02  0.7546771E-02  0.1700458E+00
         21   -1    0    0  503  501  0.00000000000E+00  0.00000000000E+00  0.62446932686E+01  0.62446932686E+01  0.00000000000E+00 0. -1.
         21   -1    0    0  501  502 -0.00000000000E+00 -0.00000000000E+00 -0.87710087808E+02  0.87710087808E+02  0.00000000000E+00 0. -1.
         21    1    1    2  503  504  0.18860938695E+02 -0.12190266691E+02 -0.27511271720E+02  0.35513485919E+02  0.00000000000E+00 0. -1.
         21    1    1    2  504  502 -0.18860938695E+02  0.12190266691E+02 -0.53954122819E+02  0.58441295157E+02  0.00000000000E+00 0. -1.
<mgrwt>
<rscale>  2 0.22457462E+02</rscale>
<asrwt>0</asrwt>
<pdfrwt beam="1">  1       21 0.96072214E-03 0.22457462E+02</pdfrwt>
<pdfrwt beam="2">  1       21 0.13493858E-01 0.22457462E+02</pdfrwt>
<totfact> 0.12759875E+08</totfact>
</mgrwt>
</event>
<event>
 4    1  0.9374408E+003  0.3253679E+02  0.7546771E-02  0.1571630E+00
         21   -1    0    0  502  501  0.00000000000E+00  0.00000000000E+00  0.75541214741E+01  0.75541214741E+01  0.00000000000E+00 0. -1.
         21   -1    0    0  503  502 -0.00000000000E+00 -0.00000000000E+00 -0.31670803241E+03  0.31670803241E+03  0.00000000000E+00 0. -1.
         21    1    1    2  503  504  0.29299033823E+02  0.14149523576E+02 -0.33519513003E+02  0.46714025221E+02  0.00000000000E+00 0.  1.
         21    1    1    2  504  501 -0.29299033823E+02 -0.14149523576E+02 -0.27563439794E+03  0.27754812867E+03  0.00000000000E+00 0.  1.
<mgrwt>
<rscale>  2 0.32536785E+02</rscale>
<asrwt>0</asrwt>
<pdfrwt beam="1">  1       21 0.11621726E-02 0.32536785E+02</pdfrwt>
<pdfrwt beam="2">  1       21 0.48724309E-01 0.32536785E+02</pdfrwt>
<totfact> 0.10165097E+07</totfact>
</mgrwt>
</event>
<event>
 4    1  0.9374408E+003  0.2796515E+02  0.7546771E-02  0.1621735E+00
         21   -1    0    0  502  501  0.00000000000E+00  0.00000000000E+00  0.48491083230E+02  0.48491083230E+02  0.00000000000E+00 0.  1.
         21   -1    0    0  504  502 -0.00000000000E+00 -0.00000000000E+00 -0.22582101456E+02  0.22582101456E+02  0.00000000000E+00 0.  1.
         21    1    1    2  503  501 -0.21299849185E+02  0.18120869289E+02  0.31953095482E+02  0.42462333779E+02  0.00000000000E+00 0. -1.
         21    1    1    2  504  503  0.21299849185E+02 -0.18120869289E+02 -0.60441137074E+01  0.28610850907E+02  0.00000000000E+00 0. -1.
<mgrwt>
<rscale>  2 0.27965148E+02</rscale>
<asrwt>0</asrwt>
<pdfrwt beam="1">  1       21 0.74601666E-02 0.27965148E+02</pdfrwt>
<pdfrwt beam="2">  1       21 0.34741695E-02 0.27965148E+02</pdfrwt>
<totfact> 0.50226299E+07</totfact>
</mgrwt>
</event>
<event>
 4    1  0.9374408E+003  0.2075160E+02  0.7546771E-02  0.1730782E+00
         21   -1    0    0  502  501  0.00000000000E+00  0.00000000000E+00  0.12329672032E+03  0.12329672032E+03  0.00000000000E+00 0.  1.
         21   -1    0    0  503  502 -0.00000000000E+00 -0.00000000000E+00 -0.77513304992E+01  0.77513304992E+01  0.00000000000E+00 0.  1.
         21    1    1    2  503  504  0.19530688354E+02 -0.70129104546E+01  0.92045565877E+01  0.22701377989E+02  0.00000000000E+00 0. -1.
         21    1    1    2  504  501 -0.19530688354E+02  0.70129104546E+01  0.10634083323E+03  0.10834667283E+03  0.00000000000E+00 0. -1.
<mgrwt>
<rscale>  2 0.20751595E+02</rscale>
<asrwt>0</asrwt>
<pdfrwt beam="1">  1       21 0.18968725E-01 0.20751595E+02</pdfrwt>
<pdfrwt beam="2">  1       21 0.11925125E-02 0.20751595E+02</pdfrwt>
<totfact> 0.50463505E+07</totfact>
</mgrwt>
</event>
<event>
 4    1  0.9374408E+003  0.4219270E+02  0.7546771E-02  0.1492669E+00
         21   -1    0    0  502  501  0.00000000000E+00  0.00000000000E+00  0.18882506721E+03  0.18882506721E+03  0.00000000000E+00 0.  1.
         21   -1    0    0  504  502 -0.00000000000E+00 -0.00000000000E+00 -0.12390998087E+02  0.12390998087E+02  0.00000000000E+00 0.  1.
         21    1    1    2  503  501  0.11825838882E+02  0.40501525006E+02  0.39018465599E+02  0.57468814593E+02  0.00000000000E+00 0. -1.
         21    1    1    2  504  503 -0.11825838882E+02 -0.40501525006E+02  0.13741560353E+03  0.14374725071E+03  0.00000000000E+00 0. -1.
<mgrwt>
<rscale>  2 0.42192701E+02</rscale>
<asrwt>0</asrwt>
<pdfrwt beam="1">  1       21 0.29050008E-01 0.42192701E+02</pdfrwt>
<pdfrwt beam="2">  1       21 0.19063075E-02 0.42192701E+02</pdfrwt>
<totfact> 0.13163718E+07</totfact>
</mgrwt>
</event>
<event>
 4    1  0.9374408E+003  0.2072207E+02  0.7546771E-02  0.1731339E+00
         21   -1    0    0  502  501  0.00000000000E+00  0.00000000000E+00  0.49231356152E+00  0.49231356152E+00  0.00000000000E+00 0.  1.
         21   -1    0    0  504  502 -0.00000000000E+00 -0.00000000000E+00 -0.99964692780E+03  0.99964692780E+03  0.00000000000E+00 0.  1.
         21    1    1    2  503  501  0.17555442081E+02  0.11009568696E+02 -0.67812047946E+03  0.67843701905E+03  0.00000000000E+00 0.  1.
         21    1    1    2  504  503 -0.17555442081E+02 -0.11009568696E+02 -0.32103413477E+03  0.32170222231E+03  0.00000000000E+00 0.  1.
<mgrwt>
<rscale>  2 0.20722069E+02</rscale>
<asrwt>0</asrwt>
<pdfrwt beam="1">  1       21 0.75741556E-04 0.20722069E+02</pdfrwt>
<pdfrwt beam="2">  1       21 0.15378979E+00 0.20722069E+02</pdfrwt>
<totfact> 0.43268524E+07</totfact>
</mgrwt>
</event>
<event>
 4    1  0.9374408E+003  0.2115896E+02  0.7546771E-02  0.1723217E+00
         21   -1    0    0  503  501  0.00000000000E+00  0.00000000000E+00  0.71937687477E+02  0.71937687477E+02  0.00000000000E+00 0. -1.
         21   -1    0    0  501  502 -0.00000000000E+00 -0.00000000000E+00 -0.64435941562E+01  0.64435941562E+01  0.00000000000E+00 0. -1.
         21    1    1    2  503  504 -0.13875566993E+02 -0.15974053431E+02  0.25503417526E+02  0.33137984970E+02  0.00000000000E+00 0. -1.
         21    1    1    2  504  502  0.13875566993E+02  0.15974053431E+02  0.39990675795E+02  0.45243296663E+02  0.00000000000E+00 0. -1.
<mgrwt>
<rscale>  2 0.21158964E+02</rscale>
<asrwt>0</asrwt>
<pdfrwt beam="1">  1       21 0.11067336E-01 0.21158964E+02</pdfrwt>
<pdfrwt beam="2">  1       21 0.99132223E-03 0.21158964E+02</pdfrwt>
<totfact> 0.16661381E+08</totfact>
</mgrwt>
</event>
<event>
 4    1  0.9374408E+003  0.2665254E+02  0.7546771E-02  0.1638341E+00
         21   -1    0    0  502  501  0.00000000000E+00  0.00000000000E+00  0.58709596701E+01  0.58709596701E+01  0.00000000000E+00 0.  1.
         21   -1    0    0  503  502 -0.00000000000E+00 -0.00000000000E+00 -0.21876266409E+03  0.21876266409E+03  0.00000000000E+00 0.  1.
         21    1    1    2  503  504 -0.53466560991E+01  0.26110745957E+02 -0.18153123498E+03  0.18347737479E+03  0.00000000000E+00 0. -1.
         21    1    1    2  504  501  0.53466560991E+01 -0.26110745957E+02 -0.31360469438E+02  0.41156248970E+02  0.00000000000E+00 0. -1.
<mgrwt>
<rscale>  2 0.26652538E+02</rscale>
<asrwt>0</asrwt>
<pdfrwt beam="1">  1       21 0.90322449E-03 0.26652538E+02</pdfrwt>
<pdfrwt beam="2">  1       21 0.33655797E-01 0.26652538E+02</pdfrwt>
<totfact> 0.29144160E+07</totfact>
</mgrwt>
</event>
<event>
 4    1  0.9374408E+003  0.2210422E+02  0.7546771E-02  0.1706456E+00
         21   -1    0    0  502  501  0.00000000000E+00  0.00000000000E+00  0.34726918922E+03  0.34726918922E+03  0.00000000000E+00 0. -1.
         21   -1    0    0  503  502 -0.00000000000E+00 -0.00000000000E+00 -0.18119805926E+01  0.18119805926E+01  0.00000000000E+00 0. -1.
         21    1    1    2  503  504 -0.22030636874E+02  0.18020739457E+01  0.90209551204E+02  0.92878197441E+02  0.00000000000E+00 0. -1.
         21    1    1    2  504  501  0.22030636874E+02 -0.18020739457E+01  0.25524765742E+03  0.25620297237E+03  0.00000000000E+00 0. -1.
<mgrwt>
<rscale>  2 0.22104218E+02</rscale>
<asrwt>0</asrwt>
<pdfrwt beam="1">  1       21 0.53425976E-01 0.22104218E+02</pdfrwt>
<pdfrwt beam="2">  1       21 0.27876652E-03 0.22104218E+02</pdfrwt>
<totfact> 0.65852347E+07</totfact>
</mgrwt>
</event>
<event>
 4    1  0.9374408E+003  0.2303857E+02  0.7546771E-02  0.1690886E+00
         21   -1    0    0  504  501  0.00000000000E+00  0.00000000000E+00  0.36988804053E+01  0.36988804053E+01  0.00000000000E+00 0.  1.
         21   -1    0    0  501  502 -0.00000000000E+00 -0.00000000000E+00 -0.22452171770E+03  0.22452171770E+03  0.00000000000E+00 0.  1.
         21    1    1    2  503  502 -0.12437460210E+02 -0.19392914777E+02 -0.17896124699E+03  0.18043808768E+03  0.00000000000E+00 0. -1.
         21    1    1    2  504  503  0.12437460210E+02  0.19392914777E+02 -0.41861590299E+02  0.47782510424E+02  0.00000000000E+00 0. -1.
<mgrwt>
<rscale>  2 0.23038567E+02</rscale>
<asrwt>0</asrwt>
<pdfrwt beam="1">  1       21 0.56905826E-03 0.23038567E+02</pdfrwt>
<pdfrwt beam="2">  1       21 0.34541819E-01 0.23038567E+02</pdfrwt>
<totfact> 0.53570895E+07</totfact>
</mgrwt>
</event>
<event>
 4    1  0.9374408E+003  0.5235042E+02  0.7546771E-02  0.1433061E+00
         21   -1    0    0  503  501  0.00000000000E+00  0.00000000000E+00  0.28242983730E+01  0.28242983730E+01  0.00000000000E+00 0. -1.
         21   -1    0    0  501  502 -0.00000000000E+00 -0.00000000000E+00 -0.12667031243E+04  0.12667031243E+04  0.00000000000E+00 0. -1.
         21    1    1    2  503  504 -0.18578734453E+02  0.48942793898E+02 -0.32491195708E+03  0.32910233409E+03  0.00000000000E+00 0. -1.
         21    1    1    2  504  502  0.18578734453E+02 -0.48942793898E+02 -0.93896686888E+03  0.94042508862E+03  0.00000000000E+00 0. -1.
<mgrwt>
<rscale>  2 0.52350420E+02</rscale>
<asrwt>0</asrwt>
<pdfrwt beam="1">  1       21 0.43450689E-03 0.52350420E+02</pdfrwt>
<pdfrwt beam="2">  1       21 0.19487765E+00 0.52350420E+02</pdfrwt>
<totfact> 0.20477451E+06</totfact>
</mgrwt>
</event>
<event>
 4    1  0.9374408E+003  0.2834871E+02  0.7546771E-02  0.1617093E+00
         21   -1    0    0  502  501  0.00000000000E+00  0.00000000000E+00  0.52885515434E+01  0.52885515434E+01  0.00000000000E+00 0. -1.
         21   -1    0    0  503  502 -0.00000000000E+00 -0.00000000000E+00 -0.16505711018E+03  0.16505711018E+03  0.00000000000E+00 0. -1.
         21    1    1    2  503  504  0.39887134814E+01  0.28066701363E+02 -0.10387634980E+03  0.10767518566E+03  0.00000000000E+00 0.  1.
         21    1    1    2  504  501 -0.39887134814E+01 -0.28066701363E+02 -0.55892208844E+02  0.62670476064E+02  0.00000000000E+00 0.  1.
<mgrwt>
<rscale>  2 0.28348714E+02</rscale>
<asrwt>0</asrwt>
<pdfrwt beam="1">  1       21 0.81362325E-03 0.28348714E+02</pdfrwt>
<pdfrwt beam="2">  1       21 0.25393404E-01 0.28348714E+02</pdfrwt>
<totfact> 0.57835110E+07</totfact>
</mgrwt>
</event>
<event>
 4    1  0.9374408E+003  0.2024728E+02  0.7546771E-02  0.1740455E+00
         21   -1    0    0  502  501  0.00000000000E+00  0.00000000000E+00  0.17451096339E+01  0.17451096339E+01  0.00000000000E+00 0.  1.
         21   -1    0    0  503  502 -0.00000000000E+00 -0.00000000000E+00 -0.41011218164E+03  0.41011218164E+03  0.00000000000E+00 0.  1.
         21    1    1    2  503  504 -0.19663818057E+02 -0.48256345285E+01 -0.33877854132E+03  0.33938304694E+03  0.00000000000E+00 0.  1.
         21    1    1    2  504  501  0.19663818057E+02  0.48256345285E+01 -0.69588530687E+02  0.72474244338E+02  0.00000000000E+00 0.  1.
<mgrwt>
<rscale>  2 0.20247284E+02</rscale>
<asrwt>0</asrwt>
<pdfrwt beam="1">  1       21 0.26847834E-03 0.20247284E+02</pdfrwt>
<pdfrwt beam="2">  1       21 0.63094196E-01 0.20247284E+02</pdfrwt>
<totfact> 0.48953016E+07</totfact>
</mgrwt>
</event>
<event>
 4    1  0.9374408E+003  0.2142175E+02  0.7546771E-02  0.1718449E+00
         21   -1    0    0  503  501  0.00000000000E+00  0.00000000000E+00  0.22163000681E+02  0.22163000681E+02  0.00000000000E+00 0.  1.
         21   -1    0    0  501  502 -0.00000000000E+00 -0.00000000000E+00 -0.32616743592E+02  0.32616743592E+02  0.00000000000E+00 0.  1.
         21    1    1    2  503  504 -0.21419107924E+02 -0.33637289558E+00  0.11325190661E+02  0.24231204562E+02  0.00000000000E+00 0. -1.
         21    1    1    2  504  502  0.21419107924E+02  0.33637289558E+00 -0.21778933572E+02  0.30548539712E+02  0.00000000000E+00 0. -1.
<mgrwt>
<rscale>  2 0.21421749E+02</rscale>
<asrwt>0</asrwt>
<pdfrwt beam="1">  1       21 0.34096924E-02 0.21421749E+02</pdfrwt>
<pdfrwt beam="2">  1       21 0.50179605E-02 0.21421749E+02</pdfrwt>
<totfact> 0.91432894E+07</totfact>
</mgrwt>
</event>
<event>
 4    1  0.9374408E+003  0.3477726E+02  0.7546771E-02  0.1550587E+00
         21   -1    0    0  502  501  0.00000000000E+00  0.00000000000E+00  0.24958566107E+04  0.24958566107E+04  0.00000000000E+00 0. -1.
         21   -1    0    0  503  502 -0.00000000000E+00 -0.00000000000E+00 -0.10329367101E+01  0.10329367101E+01  0.00000000000E+00 0. -1.
         21    1    1    2  503  504  0.25050780507E+02 -0.24122939485E+02  0.33778852348E+03  0.33957406322E+03  0.00000000000E+00 0. -1.
         21    1    1    2  504  501 -0.25050780507E+02  0.24122939485E+02  0.21570351505E+04  0.21573154842E+04  0.00000000000E+00 0. -1.
<mgrwt>
<rscale>  2 0.34777260E+02</rscale>
<asrwt>0</asrwt>
<pdfrwt beam="1">  1       21 0.38397311E+00 0.34777260E+02</pdfrwt>
<pdfrwt beam="2">  1       21 0.15891534E-03 0.34777260E+02</pdfrwt>
<totfact> 0.90528341E+05</totfact>
</mgrwt>
</event>
<event>
 4    1  0.9374408E+003  0.2125108E+02  0.7546771E-02  0.1721536E+00
         21   -1    0    0  502  501  0.00000000000E+00  0.00000000000E+00  0.49011281851E+01  0.49011281851E+01  0.00000000000E+00 0. -1.
         21   -1    0    0  504  502 -0.00000000000E+00 -0.00000000000E+00 -0.29737395913E+03  0.29737395913E+03  0.00000000000E+00 0. -1.
         21    1    1    2  503  501  0.17603062661E+02 -0.11905484737E+02 -0.20679243589E+02  0.29651972907E+02  0.00000000000E+00 0.  1.
         21    1    1    2  504  503 -0.17603062661E+02  0.11905484737E+02 -0.27179358736E+03  0.27262311441E+03  0.00000000000E+00 0.  1.
<mgrwt>
<rscale>  2 0.21251080E+02</rscale>
<asrwt>0</asrwt>
<pdfrwt beam="1">  1       21 0.75401988E-03 0.21251080E+02</pdfrwt>
<pdfrwt beam="2">  1       21 0.45749830E-01 0.21251080E+02</pdfrwt>
<totfact> 0.20426438E+07</totfact>
</mgrwt>
</event>
<event>
 4    1  0.9374408E+003  0.2000795E+02  0.7546771E-02  0.1745170E+00
         21   -1    0    0  502  501  0.00000000000E+00  0.00000000000E+00  0.21822689181E+01  0.21822689181E+01  0.00000000000E+00 0. -1.
         21   -1    0    0  503  502 -0.00000000000E+00 -0.00000000000E+00 -0.26341633340E+03  0.26341633340E+03  0.00000000000E+00 0. -1.
         21    1    1    2  503  504  0.21880045691E+01 -0.19887952706E+02 -0.20379021217E+03  0.20477003834E+03  0.00000000000E+00 0.  1.
         21    1    1    2  504  501 -0.21880045691E+01  0.19887952706E+02 -0.57443852315E+02  0.60828563978E+02  0.00000000000E+00 0.  1.
<mgrwt>
<rscale>  2 0.20007949E+02</rscale>
<asrwt>0</asrwt>
<pdfrwt beam="1">  1       21 0.33573368E-03 0.20007949E+02</pdfrwt>
<pdfrwt beam="2">  1       21 0.40525590E-01 0.20007949E+02</pdfrwt>
<totfact> 0.83176293E+07</totfact>
</mgrwt>
</event>
<event>
 4    1  0.9374408E+003  0.3027813E+02  0.7546771E-02  0.1595035E+00
         21   -1    0    0  502  501  0.00000000000E+00  0.00000000000E+00  0.21712625401E+01  0.21712625401E+01  0.00000000000E+00 0.  1.
         21   -1    0    0  503  502 -0.00000000000E+00 -0.00000000000E+00 -0.51595690108E+03  0.51595690108E+03  0.00000000000E+00 0.  1.
         21    1    1    2  503  504 -0.23163537952E+02  0.19499117386E+02 -0.36731090402E+03  0.36855673278E+03  0.00000000000E+00 0.  1.
         21    1    1    2  504  501  0.23163537952E+02 -0.19499117386E+02 -0.14647473452E+03  0.14957143083E+03  0.00000000000E+00 0.  1.
<mgrwt>
<rscale>  2 0.30278129E+02</rscale>
<asrwt>0</asrwt>
<pdfrwt beam="1">  1       21 0.33404036E-03 0.30278129E+02</pdfrwt>
<pdfrwt beam="2">  1       21 0.79377991E-01 0.30278129E+02</pdfrwt>
<totfact> 0.24081768E+07</totfact>
</mgrwt>
</event>
<event>
 4    1  0.9374408E+003  0.2598640E+02  0.7546771E-02  0.1647225E+00
         21   -1    0    0  502  501  0.00000000000E+00  0.00000000000E+00  0.36204188732E+02  0.36204188732E+02  0.00000000000E+00 0. -1.
         21   -1    0    0  503  502 -0.00000000000E+00 -0.00000000000E+00 -0.32662829060E+02  0.32662829060E+02  0.00000000000E+00 0. -1.
         21    1    1    2  503  504 -0.73271899954E+01  0.24932014469E+02 -0.20781105820E+02  0.33273824815E+02  0.00000000000E+00 0.  1.
         21    1    1    2  504  501  0.73271899954E+01 -0.24932014469E+02  0.24322465492E+02  0.35593192977E+02  0.00000000000E+00 0.  1.
<mgrwt>
<rscale>  2 0.25986401E+02</rscale>
<asrwt>0</asrwt>
<pdfrwt beam="1">  1       21 0.55698752E-02 0.25986401E+02</pdfrwt>
<pdfrwt beam="2">  1       21 0.50250506E-02 0.25986401E+02</pdfrwt>
<totfact> 0.44130302E+07</totfact>
</mgrwt>
</event>
<event>
 4    1  0.9374408E+003  0.2209362E+02  0.7546771E-02  0.1706638E+00
         21   -1    0    0  503  501  0.00000000000E+00  0.00000000000E+00  0.24201650140E+01  0.24201650140E+01  0.00000000000E+00 0. -1.
         21   -1    0    0  501  502 -0.00000000000E+00 -0.00000000000E+00 -0.31468277256E+03  0.31468277256E+03  0.00000000000E+00 0. -1.
         21    1    1    2  503  504  0.16144930625E+02  0.15082078065E+02 -0.61124365844E+02  0.64994737967E+02  0.00000000000E+00 0.  1.
         21    1    1    2  504  502 -0.16144930625E+02 -0.15082078065E+02 -0.25113824171E+03  0.25210819961E+03  0.00000000000E+00 0.  1.
<mgrwt>
<rscale>  2 0.22093616E+02</rscale>
<asrwt>0</asrwt>
<pdfrwt beam="1">  1       21 0.37233319E-03 0.22093616E+02</pdfrwt>
<pdfrwt beam="2">  1       21 0.48412719E-01 0.22093616E+02</pdfrwt>
<totfact> 0.52306398E+07</totfact>
</mgrwt>
</event>
<event>
 4    1  0.9374408E+003  0.4424305E+02  0.7546771E-02  0.1479123E+00
         21   -1    0    0  504  501  0.00000000000E+00  0.00000000000E+00  0.93001563500E+01  0.93001563500E+01  0.00000000000E+00 0. -1.
         21   -1    0    0  501  502 -0.00000000000E+00 -0.00000000000E+00 -0.41444825516E+03  0.41444825516E+03  0.00000000000E+00 0. -1.
         21    1    1    2  503  502 -0.10571053587E+02  0.42961618529E+02 -0.53936054901E+02  0.69760632587E+02  0.00000000000E+00 0.  1.
         21    1    1    2  504  503  0.10571053587E+02 -0.42961618529E+02 -0.35121204390E+03  0.35398777892E+03  0.00000000000E+00 0.  1.
<mgrwt>
<rscale>  2 0.44243054E+02</rscale>
<asrwt>0</asrwt>
<pdfrwt beam="1">  1       21 0.14307935E-02 0.44243054E+02</pdfrwt>
<pdfrwt beam="2">  1       21 0.63761262E-01 0.44243054E+02</pdfrwt>
<totfact> 0.44479095E+06</totfact>
</mgrwt>
</event>
<event>
 4    1  0.9374408E+003  0.2296642E+02  0.7546771E-02  0.1692055E+00
         21   -1    0    0  503  501  0.00000000000E+00  0.00000000000E+00  0.27610796961E+03  0.27610796961E+03  0.00000000000E+00 0. -1.
         21   -1    0    0  501  502 -0.00000000000E+00 -0.00000000000E+00 -0.48877285506E+01  0.48877285506E+01  0.00000000000E+00 0. -1.
         21    1    1    2  503  504  0.19777878874E+02 -0.11674421323E+02  0.24526673057E+03  0.24633965522E+03  0.00000000000E+00 0. -1.
         21    1    1    2  504  502 -0.19777878874E+02  0.11674421323E+02  0.25953510483E+02  0.34656042941E+02  0.00000000000E+00 0. -1.
<mgrwt>
<rscale>  2 0.22966423E+02</rscale>
<asrwt>0</asrwt>
<pdfrwt beam="1">  1       21 0.42478137E-01 0.22966423E+02</pdfrwt>
<pdfrwt beam="2">  1       21 0.75195845E-03 0.22966423E+02</pdfrwt>
<totfact> 0.24020477E+07</totfact>
</mgrwt>
</event>
<event>
 4    1  0.9374408E+003  0.2344246E+02  0.7546771E-02  0.1684437E+00
         21   -1    0    0  503  501  0.00000000000E+00  0.00000000000E+00  0.49501119290E+01  0.49501119290E+01  0.00000000000E+00 0.  1.
         21   -1    0    0  501  502 -0.00000000000E+00 -0.00000000000E+00 -0.13293063955E+03  0.13293063955E+03  0.00000000000E+00 0.  1.
         21    1    1    2  503  504 -0.64924378278E+00 -0.23433467214E+02 -0.91980959795E+02  0.94921261411E+02  0.00000000000E+00 0.  1.
         21    1    1    2  504  502  0.64924378278E+00  0.23433467214E+02 -0.35999567825E+02  0.42959490067E+02  0.00000000000E+00 0.  1.
<mgrwt>
<rscale>  2 0.23442459E+02</rscale>
<asrwt>0</asrwt>
<pdfrwt beam="1">  1       21 0.76155576E-03 0.23442459E+02</pdfrwt>
<pdfrwt beam="2">  1       21 0.20450865E-01 0.23442459E+02</pdfrwt>
<totfact> 0.89514562E+07</totfact>
</mgrwt>
</event>
<event>
 4    1  0.9374408E+003  0.2721562E+02  0.7546771E-02  0.1631077E+00
         21   -1    0    0  503  501  0.00000000000E+00  0.00000000000E+00  0.84494244505E+03  0.84494244505E+03  0.00000000000E+00 0. -1.
         21   -1    0    0  501  502 -0.00000000000E+00 -0.00000000000E+00 -0.10465004478E+01  0.10465004478E+01  0.00000000000E+00 0. -1.
         21    1    1    2  503  504 -0.16746757761E+02  0.21453111236E+02  0.25151952756E+03  0.25298767286E+03  0.00000000000E+00 0. -1.
         21    1    1    2  504  502  0.16746757761E+02 -0.21453111236E+02  0.59237641705E+03  0.59300127264E+03  0.00000000000E+00 0. -1.
<mgrwt>
<rscale>  2 0.27215618E+02</rscale>
<asrwt>0</asrwt>
<pdfrwt beam="1">  1       21 0.12999060E+00 0.27215618E+02</pdfrwt>
<pdfrwt beam="2">  1       21 0.16100074E-03 0.27215618E+02</pdfrwt>
<totfact> 0.22985335E+07</totfact>
</mgrwt>
</event>
<event>
 4    1  0.9374408E+003  0.3111897E+02  0.7546771E-02  0.1586039E+00
         21   -1    0    0  502  501  0.00000000000E+00  0.00000000000E+00  0.98072755433E+02  0.98072755433E+02  0.00000000000E+00 0.  1.
         21   -1    0    0  503  502 -0.00000000000E+00 -0.00000000000E+00 -0.14406935158E+02  0.14406935158E+02  0.00000000000E+00 0.  1.
         21    1    1    2  503  504 -0.84044146478E+01  0.29962578157E+02  0.73378478398E+02  0.79704399924E+02  0.00000000000E+00 0.  1.
         21    1    1    2  504  501  0.84044146478E+01 -0.29962578157E+02  0.10287341878E+02  0.32775290667E+02  0.00000000000E+00 0.  1.
<mgrwt>
<rscale>  2 0.31118970E+02</rscale>
<asrwt>0</asrwt>
<pdfrwt beam="1">  1       21 0.15088116E-01 0.31118970E+02</pdfrwt>
<pdfrwt beam="2">  1       21 0.22164516E-02 0.31118970E+02</pdfrwt>
<totfact> 0.31868533E+07</totfact>
</mgrwt>
</event>
<event>
 4    1  0.9374408E+003  0.2928328E+02  0.7546771E-02  0.1606149E+00
         21   -1    0    0  502  501  0.00000000000E+00  0.00000000000E+00  0.40363552622E+02  0.40363552622E+02  0.00000000000E+00 0. -1.
         21   -1    0    0  504  502 -0.00000000000E+00 -0.00000000000E+00 -0.23569312842E+02  0.23569312842E+02  0.00000000000E+00 0. -1.
         21    1    1    2  503  501  0.17252088596E+02 -0.23661697962E+02  0.18436305220E+02  0.34603581629E+02  0.00000000000E+00 0.  1.
         21    1    1    2  504  503 -0.17252088596E+02  0.23661697962E+02 -0.16420654390E+01  0.29329283835E+02  0.00000000000E+00 0.  1.
<mgrwt>
<rscale>  2 0.29283280E+02</rscale>
<asrwt>0</asrwt>
<pdfrwt beam="1">  1       21 0.62097773E-02 0.29283280E+02</pdfrwt>
<pdfrwt beam="2">  1       21 0.36260481E-02 0.29283280E+02</pdfrwt>
<totfact> 0.64015452E+07</totfact>
</mgrwt>
</event>
<event>
 4    1  0.9374408E+003  0.2079655E+02  0.7546771E-02  0.1729936E+00
         21   -1    0    0  502  501  0.00000000000E+00  0.00000000000E+00  0.17355936220E+04  0.17355936220E+04  0.00000000000E+00 0. -1.
         21   -1    0    0  504  502 -0.00000000000E+00 -0.00000000000E+00 -0.49011433378E+00  0.49011433378E+00  0.00000000000E+00 0. -1.
         21    1    1    2  503  501  0.15169666983E+02 -0.14225952873E+02  0.25895413408E+03  0.25978787518E+03  0.00000000000E+00 0.  1.
         21    1    1    2  504  503 -0.15169666983E+02  0.14225952873E+02  0.14761493736E+04  0.14762958612E+04  0.00000000000E+00 0.  1.
<mgrwt>
<rscale>  2 0.20796551E+02</rscale>
<asrwt>0</asrwt>
<pdfrwt beam="1">  1       21 0.26700948E+00 0.20796551E+02</pdfrwt>
<pdfrwt beam="2">  1       21 0.75403595E-04 0.20796551E+02</pdfrwt>
<totfact> 0.10407432E+07</totfact>
</mgrwt>
</event>
<event>
 4    1  0.9374408E+003  0.5943914E+02  0.7546771E-02  0.1400201E+00
         21   -1    0    0  502  501  0.00000000000E+00  0.00000000000E+00  0.52293552625E+02  0.52293552625E+02  0.00000000000E+00 0.  1.
         21   -1    0    0  504  502 -0.00000000000E+00 -0.00000000000E+00 -0.30659308640E+03  0.30659308640E+03  0.00000000000E+00 0.  1.
         21    1    1    2  503  501 -0.56433228117E+02  0.18662858410E+02 -0.28559314700E+03  0.29171297046E+03  0.00000000000E+00 0. -1.
         21    1    1    2  504  503  0.56433228117E+02 -0.18662858410E+02  0.31293613227E+02  0.67173668565E+02  0.00000000000E+00 0. -1.
<mgrwt>
<rscale>  2 0.59439141E+02</rscale>
<asrwt>0</asrwt>
<pdfrwt beam="1">  1       21 0.80451621E-02 0.59439141E+02</pdfrwt>
<pdfrwt beam="2">  1       21 0.47168166E-01 0.59439141E+02</pdfrwt>
<totfact> 0.51532789E+05</totfact>
</mgrwt>
</event>
<event>
 4    1  0.9374408E+003  0.2399450E+02  0.7546771E-02  0.1675879E+00
         21   -1    0    0  502  501  0.00000000000E+00  0.00000000000E+00  0.11821675739E+02  0.11821675739E+02  0.00000000000E+00 0.  1.
         21   -1    0    0  504  502 -0.00000000000E+00 -0.00000000000E+00 -0.14120547234E+03  0.14120547234E+03  0.00000000000E+00 0.  1.
         21    1    1    2  503  501  0.10200261240E+02 -0.21718436160E+02 -0.27631320166E+01  0.24153068069E+02  0.00000000000E+00 0. -1.
         21    1    1    2  504  503 -0.10200261240E+02  0.21718436160E+02 -0.12662066458E+03  0.12887408001E+03  0.00000000000E+00 0. -1.
<mgrwt>
<rscale>  2 0.23994495E+02</rscale>
<asrwt>0</asrwt>
<pdfrwt beam="1">  1       21 0.18187193E-02 0.23994495E+02</pdfrwt>
<pdfrwt beam="2">  1       21 0.21723919E-01 0.23994495E+02</pdfrwt>
<totfact> 0.21730501E+07</totfact>
</mgrwt>
</event>
<event>
 4    1  0.9374408E+003  0.2108184E+02  0.7546771E-02  0.1724632E+00
         21   -1    0    0  502  501  0.00000000000E+00  0.00000000000E+00  0.55919198113E+01  0.55919198113E+01  0.00000000000E+00 0.  1.
         21   -1    0    0  504  502 -0.00000000000E+00 -0.00000000000E+00 -0.15334254337E+03  0.15334254337E+03  0.00000000000E+00 0.  1.
         21    1    1    2  503  501 -0.24508240512E+01 -0.20938898375E+02 -0.18722225623E+02  0.28195136743E+02  0.00000000000E+00 0. -1.
         21    1    1    2  504  503  0.24508240512E+01  0.20938898375E+02 -0.12902839794E+03  0.13073932644E+03  0.00000000000E+00 0. -1.
<mgrwt>
<rscale>  2 0.21081841E+02</rscale>
<asrwt>0</asrwt>
<pdfrwt beam="1">  1       21 0.86029546E-03 0.21081841E+02</pdfrwt>
<pdfrwt beam="2">  1       21 0.23591158E-01 0.21081841E+02</pdfrwt>
<totfact> 0.56448718E+07</totfact>
</mgrwt>
</event>
<event>
 4    1  0.9374408E+003  0.2617962E+02  0.7546771E-02  0.1644615E+00
         21   -1    0    0  503  501  0.00000000000E+00  0.00000000000E+00  0.18880307059E+02  0.18880307059E+02  0.00000000000E+00 0.  1.
         21   -1    0    0  501  502 -0.00000000000E+00 -0.00000000000E+00 -0.52573383258E+02  0.52573383258E+02  0.00000000000E+00 0.  1.
         21    1    1    2  503  504  0.41212969367E+01  0.25853186027E+02  0.30298970383E+01  0.26354365715E+02  0.00000000000E+00 0.  1.
         21    1    1    2  504  502 -0.41212969367E+01 -0.25853186027E+02 -0.36722973237E+02  0.45099324602E+02  0.00000000000E+00 0.  1.
<mgrwt>
<rscale>  2 0.26179616E+02</rscale>
<asrwt>0</asrwt>
<pdfrwt beam="1">  1       21 0.29046627E-02 0.26179616E+02</pdfrwt>
<pdfrwt beam="2">  1       21 0.80882127E-02 0.26179616E+02</pdfrwt>
<totfact> 0.57366218E+07</totfact>
</mgrwt>
</event>
<event>
 4    1  0.9374408E+003  0.2112178E+02  0.7546771E-02  0.1723898E+00
         21   -1    0    0  502  501  0.00000000000E+00  0.00000000000E+00  0.15022191152E+02  0.15022191152E+02  0.00000000000E+00 0. -1.
         21   -1    0    0  503  502 -0.00000000000E+00 -0.00000000000E+00 -0.70148113262E+02  0.70148113262E+02  0.00000000000E+00 0. -1.
         21    1    1    2  503  504  0.19839621111E+02  0.72469919555E+01  0.47747983515E+01  0.21654749076E+02  0.00000000000E+00 0.  1.
         21    1    1    2  504  501 -0.19839621111E+02 -0.72469919555E+01 -0.59900720461E+02  0.63515555339E+02  0.00000000000E+00 0.  1.
<mgrwt>
<rscale>  2 0.21121777E+02</rscale>
<asrwt>0</asrwt>
<pdfrwt beam="1">  1       21 0.23111063E-02 0.21121777E+02</pdfrwt>
<pdfrwt beam="2">  1       21 0.10792017E-01 0.21121777E+02</pdfrwt>
<totfact> 0.48114127E+07</totfact>
</mgrwt>
</event>
<event>
 4    1  0.9374408E+003  0.2002944E+02  0.7546771E-02  0.1744743E+00
         21   -1    0    0  503  501  0.00000000000E+00  0.00000000000E+00  0.95715135832E+00  0.95715135832E+00  0.00000000000E+00 0.  1.
         21   -1    0    0  501  502 -0.00000000000E+00 -0.00000000000E+00 -0.50557093237E+03  0.50557093237E+03  0.00000000000E+00 0.  1.
         21    1    1    2  503  504 -0.19508595641E+02  0.45379799931E+01 -0.14758874300E+03  0.14894165175E+03  0.00000000000E+00 0. -1.
         21    1    1    2  504  502  0.19508595641E+02 -0.45379799931E+01 -0.35702503801E+03  0.35758643198E+03  0.00000000000E+00 0. -1.
<mgrwt>
<rscale>  2 0.20029442E+02</rscale>
<asrwt>0</asrwt>
<pdfrwt beam="1">  1       21 0.14725375E-03 0.20029442E+02</pdfrwt>
<pdfrwt beam="2">  1       21 0.77780307E-01 0.20029442E+02</pdfrwt>
<totfact> 0.75544985E+07</totfact>
</mgrwt>
</event>
<event>
 4    1  0.9374408E+003  0.2444438E+02  0.7546771E-02  0.1669113E+00
         21   -1    0    0  503  501  0.00000000000E+00  0.00000000000E+00  0.44079606198E+01  0.44079606198E+01  0.00000000000E+00 0.  1.
         21   -1    0    0  501  502 -0.00000000000E+00 -0.00000000000E+00 -0.19113735809E+03  0.19113735809E+03  0.00000000000E+00 0.  1.
         21    1    1    2  503  504  0.85377602016E+01 -0.22904902571E+02 -0.40640852195E+02  0.47425802873E+02  0.00000000000E+00 0.  1.
         21    1    1    2  504  502 -0.85377602016E+01  0.22904902571E+02 -0.14608854528E+03  0.14811951584E+03  0.00000000000E+00 0.  1.
<mgrwt>
<rscale>  2 0.24444384E+02</rscale>
<asrwt>0</asrwt>
<pdfrwt beam="1">  1       21 0.67814773E-03 0.24444384E+02</pdfrwt>
<pdfrwt beam="2">  1       21 0.29405750E-01 0.24444384E+02</pdfrwt>
<totfact> 0.56288367E+07</totfact>
</mgrwt>
</event>
<event>
 4    1  0.9374408E+003  0.3623952E+02  0.7546771E-02  0.1537861E+00
         21   -1    0    0  502  501  0.00000000000E+00  0.00000000000E+00  0.38223029051E+02  0.38223029051E+02  0.00000000000E+00 0.  1.
         21   -1    0    0  504  502 -0.00000000000E+00 -0.00000000000E+00 -0.68766972846E+02  0.68766972846E+02  0.00000000000E+00 0.  1.
         21    1    1    2  503  501 -0.10228902700E+02 -0.34765961558E+02 -0.53112152964E+02  0.64297770770E+02  0.00000000000E+00 0. -1.
         21    1    1    2  504  503  0.10228902700E+02  0.34765961558E+02  0.22568209169E+02  0.42692231127E+02  0.00000000000E+00 0. -1.
<mgrwt>
<rscale>  2 0.36239516E+02</rscale>
<asrwt>0</asrwt>
<pdfrwt beam="1">  1       21 0.58804661E-02 0.36239516E+02</pdfrwt>
<pdfrwt beam="2">  1       21 0.10579534E-01 0.36239516E+02</pdfrwt>
<totfact> 0.12692535E+07</totfact>
</mgrwt>
</event>
<event>
 4    1  0.9374408E+003  0.2014871E+02  0.7546771E-02  0.1742387E+00
         21   -1    0    0  502  501  0.00000000000E+00  0.00000000000E+00  0.31762639726E+03  0.31762639726E+03  0.00000000000E+00 0. -1.
         21   -1    0    0  503  502 -0.00000000000E+00 -0.00000000000E+00 -0.17305621978E+01  0.17305621978E+01  0.00000000000E+00 0. -1.
         21    1    1    2  503  504  0.19985683269E+02 -0.25579061162E+01  0.76303664927E+02  0.78919070577E+02  0.00000000000E+00 0. -1.
         21    1    1    2  504  501 -0.19985683269E+02  0.25579061162E+01  0.23959217013E+03  0.24043788888E+03  0.00000000000E+00 0. -1.
<mgrwt>
<rscale>  2 0.20148708E+02</rscale>
<asrwt>0</asrwt>
<pdfrwt beam="1">  1       21 0.48865553E-01 0.20148708E+02</pdfrwt>
<pdfrwt beam="2">  1       21 0.26624059E-03 0.20148708E+02</pdfrwt>
<totfact> 0.81741814E+07</totfact>
</mgrwt>
</event>
<event>
 4    1  0.9374408E+003  0.2299471E+02  0.7546771E-02  0.1691596E+00
         21   -1    0    0  502  501  0.00000000000E+00  0.00000000000E+00  0.15053116937E+02  0.15053116937E+02  0.00000000000E+00 0. -1.
         21   -1    0    0  503  502 -0.00000000000E+00 -0.00000000000E+00 -0.48729712540E+02  0.48729712540E+02  0.00000000000E+00 0. -1.
         21    1    1    2  503  504 -0.57118942886E+01  0.22273996250E+02 -0.33688482752E+02  0.40788117331E+02  0.00000000000E+00 0.  1.
         21    1    1    2  504  501  0.57118942886E+01 -0.22273996250E+02  0.11887148798E-01  0.22994712145E+02  0.00000000000E+00 0.  1.
<mgrwt>
<rscale>  2 0.22994709E+02</rscale>
<asrwt>0</asrwt>
<pdfrwt beam="1">  1       21 0.23158641E-02 0.22994709E+02</pdfrwt>
<pdfrwt beam="2">  1       21 0.74968790E-02 0.22994709E+02</pdfrwt>
<totfact> 0.89228285E+07</totfact>
</mgrwt>
</event>
<event>
 4    1  0.9374408E+003  0.2351588E+02  0.7546771E-02  0.1683282E+00
         21   -1    0    0  504  501  0.00000000000E+00  0.00000000000E+00  0.48247062760E+01  0.48247062760E+01  0.00000000000E+00 0. -1.
         21   -1    0    0  501  502 -0.00000000000E+00 -0.00000000000E+00 -0.26946841756E+03  0.26946841756E+03  0.00000000000E+00 0. -1.
         21    1    1    2  503  502 -0.10740022776E+02  0.20920047611E+02 -0.23628697923E+03  0.23745427567E+03  0.00000000000E+00 0.  1.
         21    1    1    2  504  503  0.10740022776E+02 -0.20920047611E+02 -0.28356732054E+02  0.36838848164E+02  0.00000000000E+00 0.  1.
<mgrwt>
<rscale>  2 0.23515877E+02</rscale>
<asrwt>0</asrwt>
<pdfrwt beam="1">  1       21 0.74226243E-03 0.23515877E+02</pdfrwt>
<pdfrwt beam="2">  1       21 0.41456684E-01 0.23515877E+02</pdfrwt>
<totfact> 0.25778083E+07</totfact>
</mgrwt>
</event>
<event>
 4    1  0.9374408E+003  0.2380331E+02  0.7546771E-02  0.1678810E+00
         21   -1    0    0  504  501  0.00000000000E+00  0.00000000000E+00  0.54956956702E+01  0.54956956702E+01  0.00000000000E+00 0. -1.
         21   -1    0    0  501  502 -0.00000000000E+00 -0.00000000000E+00 -0.13450804815E+03  0.13450804815E+03  0.00000000000E+00 0. -1.
         21    1    1    2  503  502  0.67440197017E+01  0.22827955924E+02 -0.98333459947E+02  0.10117344868E+03  0.00000000000E+00 0. -1.
         21    1    1    2  504  503 -0.67440197017E+01 -0.22827955924E+02 -0.30678892535E+02  0.38830295139E+02  0.00000000000E+00 0. -1.
<mgrwt>
<rscale>  2 0.23803306E+02</rscale>
<asrwt>0</asrwt>
<pdfrwt beam="1">  1       21 0.84549175E-03 0.23803306E+02</pdfrwt>
<pdfrwt beam="2">  1       21 0.20693543E-01 0.23803306E+02</pdfrwt>
<totfact> 0.75308398E+07</totfact>
</mgrwt>
</event>
<event>
 4    1  0.9374408E+003  0.2167738E+02  0.7546771E-02  0.1713892E+00
         21   -1    0    0  502  501  0.00000000000E+00  0.00000000000E+00  0.41706207689E+01  0.41706207689E+01  0.00000000000E+00 0. -1.
         21   -1    0    0  504  502 -0.00000000000E+00 -0.00000000000E+00 -0.18393281011E+03  0.18393281011E+03  0.00000000000E+00 0. -1.
         21    1    1    2  503  501 -0.14483232841E+02  0.16129005803E+02 -0.31339449557E+02  0.38106035746E+02  0.00000000000E+00 0.  1.
         21    1    1    2  504  503  0.14483232841E+02 -0.16129005803E+02 -0.14842273978E+03  0.14999739513E+03  0.00000000000E+00 0.  1.
<mgrwt>
<rscale>  2 0.21677381E+02</rscale>
<asrwt>0</asrwt>
<pdfrwt beam="1">  1       21 0.64163403E-03 0.21677381E+02</pdfrwt>
<pdfrwt beam="2">  1       21 0.28297353E-01 0.21677381E+02</pdfrwt>
<totfact> 0.63557092E+07</totfact>
</mgrwt>
</event>
<event>
 4    1  0.9374408E+003  0.2138762E+02  0.7546771E-02  0.1719063E+00
         21   -1    0    0  503  501  0.00000000000E+00  0.00000000000E+00  0.17780837361E+02  0.17780837361E+02  0.00000000000E+00 0.  1.
         21   -1    0    0  501  502 -0.00000000000E+00 -0.00000000000E+00 -0.49057065879E+02  0.49057065879E+02  0.00000000000E+00 0.  1.
         21    1    1    2  503  504 -0.45832315602E+01  0.20890768418E+02  0.74086054653E+01  0.22634435084E+02  0.00000000000E+00 0. -1.
         21    1    1    2  504  502  0.45832315602E+01 -0.20890768418E+02 -0.38684833983E+02  0.44203468155E+02  0.00000000000E+00 0. -1.
<mgrwt>
<rscale>  2 0.21387618E+02</rscale>
<asrwt>0</asrwt>
<pdfrwt beam="1">  1       21 0.27355135E-02 0.21387618E+02</pdfrwt>
<pdfrwt beam="2">  1       21 0.75472408E-02 0.21387618E+02</pdfrwt>
<totfact> 0.66876359E+07</totfact>
</mgrwt>
</event>
<event>
 4    1  0.9374408E+003  0.2238064E+02  0.7546771E-02  0.1701751E+00
         21   -1    0    0  502  501  0.00000000000E+00  0.00000000000E+00  0.32741814663E+01  0.32741814663E+01  0.00000000000E+00 0.  1.
         21   -1    0    0  503  502 -0.00000000000E+00 -0.00000000000E+00 -0.20088738954E+03  0.20088738954E+03  0.00000000000E+00 0.  1.
         21    1    1    2  503  504 -0.20984998968E+02 -0.77796303183E+01 -0.48957531321E+02  0.53830592628E+02  0.00000000000E+00 0.  1.
         21    1    1    2  504  501  0.20984998968E+02  0.77796303183E+01 -0.14865567675E+03  0.15033097838E+03  0.00000000000E+00 0.  1.
<mgrwt>
<rscale>  2 0.22380635E+02</rscale>
<asrwt>0</asrwt>
<pdfrwt beam="1">  1       21 0.50372033E-03 0.22380635E+02</pdfrwt>
<pdfrwt beam="2">  1       21 0.30905746E-01 0.22380635E+02</pdfrwt>
<totfact> 0.78098388E+07</totfact>
</mgrwt>
</event>
<event>
 4    1  0.9374408E+003  0.2901721E+02  0.7546771E-02  0.1609213E+00
         21   -1    0    0  502  501  0.00000000000E+00  0.00000000000E+00  0.10032275651E+02  0.10032275651E+02  0.00000000000E+00 0.  1.
         21   -1    0    0  504  502 -0.00000000000E+00 -0.00000000000E+00 -0.22563555643E+03  0.22563555643E+03  0.00000000000E+00 0.  1.
         21    1    1    2  503  501 -0.61055571184E+01 -0.28367601483E+02 -0.14419989401E+02  0.32402696430E+02  0.00000000000E+00 0.  1.
         21    1    1    2  504  503  0.61055571184E+01  0.28367601483E+02 -0.20118329138E+03  0.20326513565E+03  0.00000000000E+00 0.  1.
<mgrwt>
<rscale>  2 0.29017213E+02</rscale>
<asrwt>0</asrwt>
<pdfrwt beam="1">  1       21 0.15434271E-02 0.29017213E+02</pdfrwt>
<pdfrwt beam="2">  1       21 0.34713160E-01 0.29017213E+02</pdfrwt>
<totfact> 0.12386320E+07</totfact>
</mgrwt>
</event>
<event>
 4    1  0.9374408E+003  0.2186986E+02  0.7546771E-02  0.1710512E+00
         21   -1    0    0  502  501  0.00000000000E+00  0.00000000000E+00  0.43634049743E+03  0.43634049743E+03  0.00000000000E+00 0. -1.
         21   -1    0    0  504  502 -0.00000000000E+00 -0.00000000000E+00 -0.16113988163E+01  0.16113988163E+01  0.00000000000E+00 0. -1.
         21    1    1    2  503  501 -0.17826619104E+02 -0.12668952707E+02  0.93539876949E+02  0.96062475978E+02  0.00000000000E+00 0.  1.
         21    1    1    2  504  503  0.17826619104E+02  0.12668952707E+02  0.34118922167E+03  0.34188942027E+03  0.00000000000E+00 0.  1.
<mgrwt>
<rscale>  2 0.21869859E+02</rscale>
<asrwt>0</asrwt>
<pdfrwt beam="1">  1       21 0.67129213E-01 0.21869859E+02</pdfrwt>
<pdfrwt beam="2">  1       21 0.24790786E-03 0.21869859E+02</pdfrwt>
<totfact> 0.49381374E+07</totfact>
</mgrwt>
</event>
<event>
 4    1  0.9374408E+003  0.2063779E+02  0.7546771E-02  0.1732934E+00
         21   -1    0    0  503  501  0.00000000000E+00  0.00000000000E+00  0.10491031273E+02  0.10491031273E+02  0.00000000000E+00 0.  1.
         21   -1    0    0  501  502 -0.00000000000E+00 -0.00000000000E+00 -0.44838470971E+02  0.44838470971E+02  0.00000000000E+00 0.  1.
         21    1    1    2  503  504  0.11778756629E+02 -0.16946358382E+02 -0.25681032517E+02  0.32945919342E+02  0.00000000000E+00 0.  1.
         21    1    1    2  504  502 -0.11778756629E+02  0.16946358382E+02 -0.86664071809E+01  0.22383582903E+02  0.00000000000E+00 0.  1.
<mgrwt>
<rscale>  2 0.20637785E+02</rscale>
<asrwt>0</asrwt>
<pdfrwt beam="1">  1       21 0.16140048E-02 0.20637785E+02</pdfrwt>
<pdfrwt beam="2">  1       21 0.68982265E-02 0.20637785E+02</pdfrwt>
<totfact> 0.17172028E+08</totfact>
</mgrwt>
</event>
<event>
 4    1  0.9374408E+003  0.3066045E+02  0.7546771E-02  0.1590901E+00
         21   -1    0    0  502  501  0.00000000000E+00  0.00000000000E+00  0.12165693342E+03  0.12165693342E+03  0.00000000000E+00 0. -1.
         21   -1    0    0  504  502 -0.00000000000E+00 -0.00000000000E+00 -0.12459004036E+02  0.12459004036E+02  0.00000000000E+00 0. -1.
         21    1    1    2  503  501 -0.30218769705E+02 -0.51854720157E+01  0.95924998380E+02  0.10070585125E+03  0.00000000000E+00 0.  1.
         21    1    1    2  504  503  0.30218769705E+02  0.51854720157E+01  0.13272931000E+02  0.33410086199E+02  0.00000000000E+00 0.  1.
<mgrwt>
<rscale>  2 0.30660449E+02</rscale>
<asrwt>0</asrwt>
<pdfrwt beam="1">  1       21 0.18716450E-01 0.30660449E+02</pdfrwt>
<pdfrwt beam="2">  1       21 0.19167699E-02 0.30660449E+02</pdfrwt>
<totfact> 0.27370717E+07</totfact>
</mgrwt>
</event>
<event>
 4    1  0.9374408E+003  0.2686078E+02  0.7546771E-02  0.1635629E+00
         21   -1    0    0  503  501  0.00000000000E+00  0.00000000000E+00  0.22452325250E+02  0.22452325250E+02  0.00000000000E+00 0.  1.
         21   -1    0    0  501  502 -0.00000000000E+00 -0.00000000000E+00 -0.50099656147E+02  0.50099656147E+02  0.00000000000E+00 0.  1.
         21    1    1    2  503  504  0.21675522677E+02  0.15864209764E+02 -0.35546352082E+02  0.44553839129E+02  0.00000000000E+00 0.  1.
         21    1    1    2  504  502 -0.21675522677E+02 -0.15864209764E+02  0.78990211856E+01  0.27998142268E+02  0.00000000000E+00 0.  1.
<mgrwt>
<rscale>  2 0.26860779E+02</rscale>
<asrwt>0</asrwt>
<pdfrwt beam="1">  1       21 0.34542039E-02 0.26860779E+02</pdfrwt>
<pdfrwt beam="2">  1       21 0.77076393E-02 0.26860779E+02</pdfrwt>
<totfact> 0.47594453E+07</totfact>
</mgrwt>
</event>
<event>
 4    1  0.9374408E+003  0.2276664E+02  0.7546771E-02  0.1695321E+00
         21   -1    0    0  504  501  0.00000000000E+00  0.00000000000E+00  0.73563748142E+00  0.73563748142E+00  0.00000000000E+00 0. -1.
         21   -1    0    0  501  502 -0.00000000000E+00 -0.00000000000E+00 -0.11020104699E+04  0.11020104699E+04  0.00000000000E+00 0. -1.
         21    1    1    2  503  502 -0.94455526303E+01 -0.20714766694E+02 -0.88175318628E+03  0.88204705177E+03  0.00000000000E+00 0. -1.
         21    1    1    2  504  503  0.94455526303E+01  0.20714766694E+02 -0.21952164611E+03  0.22069905558E+03  0.00000000000E+00 0. -1.
<mgrwt>
<rscale>  2 0.22766643E+02</rscale>
<asrwt>0</asrwt>
<pdfrwt beam="1">  1       21 0.11317556E-03 0.22766643E+02</pdfrwt>
<pdfrwt beam="2">  1       21 0.16953922E+00 0.22766643E+02</pdfrwt>
<totfact> 0.19691013E+07</totfact>
</mgrwt>
</event>
<event>
 4    1  0.9374408E+003  0.2191000E+02  0.7546771E-02  0.1709813E+00
         21   -1    0    0  503  501  0.00000000000E+00  0.00000000000E+00  0.18468030962E+01  0.18468030962E+01  0.00000000000E+00 0. -1.
         21   -1    0    0  501  502 -0.00000000000E+00 -0.00000000000E+00 -0.39220331121E+03  0.39220331121E+03  0.00000000000E+00 0. -1.
         21    1    1    2  503  504  0.21773586758E+02  0.24411421536E+01 -0.80760296878E+02  0.83679590146E+02  0.00000000000E+00 0. -1.
         21    1    1    2  504  502 -0.21773586758E+02 -0.24411421536E+01 -0.30959621123E+03  0.31037052416E+03  0.00000000000E+00 0. -1.
<mgrwt>
<rscale>  2 0.21910004E+02</rscale>
<asrwt>0</asrwt>
<pdfrwt beam="1">  1       21 0.28412352E-03 0.21910004E+02</pdfrwt>
<pdfrwt beam="2">  1       21 0.60338977E-01 0.21910004E+02</pdfrwt>
<totfact> 0.50248142E+07</totfact>
</mgrwt>
</event>
<event>
 4    1  0.9374408E+003  0.2026701E+02  0.7546771E-02  0.1740070E+00
         21   -1    0    0  502  501  0.00000000000E+00  0.00000000000E+00  0.12602518064E+02  0.12602518064E+02  0.00000000000E+00 0.  1.
         21   -1    0    0  504  502 -0.00000000000E+00 -0.00000000000E+00 -0.47064278085E+02  0.47064278085E+02  0.00000000000E+00 0.  1.
         21    1    1    2  503  501  0.13607016577E+02  0.15020016434E+02 -0.33773829376E+02  0.39388111715E+02  0.00000000000E+00 0. -1.
         21    1    1    2  504  503 -0.13607016577E+02 -0.15020016434E+02 -0.68793064557E+00  0.20278684434E+02  0.00000000000E+00 0. -1.
<mgrwt>
<rscale>  2 0.20267012E+02</rscale>
<asrwt>0</asrwt>
<pdfrwt beam="1">  1       21 0.19388489E-02 0.20267012E+02</pdfrwt>
<pdfrwt beam="2">  1       21 0.72406583E-02 0.20267012E+02</pdfrwt>
<totfact> 0.11948487E+08</totfact>
</mgrwt>
</event>
<event>
 4    1  0.9374408E+003  0.2048341E+02  0.7546771E-02  0.1735882E+00
         21   -1    0    0  503  501  0.00000000000E+00  0.00000000000E+00  0.82716742163E+02  0.82716742163E+02  0.00000000000E+00 0. -1.
         21   -1    0    0  501  502 -0.00000000000E+00 -0.00000000000E+00 -0.71708297443E+01  0.71708297443E+01  0.00000000000E+00 0. -1.
         21    1    1    2  503  504  0.19240517293E+02  0.70265726938E+01  0.13460161464E+02  0.24510123952E+02  0.00000000000E+00 0.  1.
         21    1    1    2  504  502 -0.19240517293E+02 -0.70265726938E+01  0.62085750955E+02  0.65377447956E+02  0.00000000000E+00 0.  1.
<mgrwt>
<rscale>  2 0.20483414E+02</rscale>
<asrwt>0</asrwt>
<pdfrwt beam="1">  1       21 0.12725652E-01 0.20483414E+02</pdfrwt>
<pdfrwt beam="2">  1       21 0.11032046E-02 0.20483414E+02</pdfrwt>
<totfact> 0.11139304E+08</totfact>
</mgrwt>
</event>
<event>
 4    1  0.9374408E+003  0.3418814E+02  0.7546771E-02  0.1555931E+00
         21   -1    0    0  503  501  0.00000000000E+00  0.00000000000E+00  0.19599339243E+03  0.19599339243E+03  0.00000000000E+00 0. -1.
         21   -1    0    0  501  502 -0.00000000000E+00 -0.00000000000E+00 -0.66423838140E+01  0.66423838140E+01  0.00000000000E+00 0. -1.
         21    1    1    2  503  504 -0.25440229745E+02 -0.22839077690E+02  0.62287387336E+02  0.71053130686E+02  0.00000000000E+00 0. -1.
         21    1    1    2  504  502  0.25440229745E+02  0.22839077690E+02  0.12706362128E+03  0.13158264556E+03  0.00000000000E+00 0. -1.
<mgrwt>
<rscale>  2 0.34188138E+02</rscale>
<asrwt>0</asrwt>
<pdfrwt beam="1">  1       21 0.30152825E-01 0.34188138E+02</pdfrwt>
<pdfrwt beam="2">  1       21 0.10219053E-02 0.34188138E+02</pdfrwt>
<totfact> 0.31091126E+07</totfact>
</mgrwt>
</event>
<event>
 4    1  0.9374408E+003  0.2701495E+02  0.7546771E-02  0.1633640E+00
         21   -1    0    0  503  501  0.00000000000E+00  0.00000000000E+00  0.20156004298E+02  0.20156004298E+02  0.00000000000E+00 0.  1.
         21   -1    0    0  501  502 -0.00000000000E+00 -0.00000000000E+00 -0.44732130237E+02  0.44732130237E+02  0.00000000000E+00 0.  1.
         21    1    1    2  503  504 -0.14970478377E+02  0.22487599521E+02  0.18748347585E+01  0.27079925414E+02  0.00000000000E+00 0.  1.
         21    1    1    2  504  502  0.14970478377E+02 -0.22487599521E+02 -0.26450960698E+02  0.37808209121E+02  0.00000000000E+00 0.  1.
<mgrwt>
<rscale>  2 0.27014947E+02</rscale>
<asrwt>0</asrwt>
<pdfrwt beam="1">  1       21 0.31009238E-02 0.27014947E+02</pdfrwt>
<pdfrwt beam="2">  1       21 0.68818662E-02 0.27014947E+02</pdfrwt>
<totfact> 0.67951634E+07</totfact>
</mgrwt>
</event>
<event>
 4    1  0.9374408E+003  0.3697310E+02  0.7546771E-02  0.1531746E+00
         21   -1    0    0  504  501  0.00000000000E+00  0.00000000000E+00  0.93477153385E+01  0.93477153385E+01  0.00000000000E+00 0. -1.
         21   -1    0    0  501  502 -0.00000000000E+00 -0.00000000000E+00 -0.25331616887E+03  0.25331616887E+03  0.00000000000E+00 0. -1.
         21    1    1    2  503  502  0.90731949799E+01  0.35842529841E+02 -0.36598488068E+02  0.52023640217E+02  0.00000000000E+00 0. -1.
         21    1    1    2  504  503 -0.90731949799E+01 -0.35842529841E+02 -0.20736996546E+03  0.21064024399E+03  0.00000000000E+00 0. -1.
<mgrwt>
<rscale>  2 0.36973096E+02</rscale>
<asrwt>0</asrwt>
<pdfrwt beam="1">  1       21 0.14381102E-02 0.36973096E+02</pdfrwt>
<pdfrwt beam="2">  1       21 0.38971714E-01 0.36973096E+02</pdfrwt>
<totfact> 0.11511091E+07</totfact>
</mgrwt>
</event>
<event>
 4    1  0.9374408E+003  0.2096014E+02  0.7546771E-02  0.1726882E+00
         21   -1    0    0  504  501  0.00000000000E+00  0.00000000000E+00  0.21307677227E+03  0.21307677227E+03  0.00000000000E+00 0. -1.
         21   -1    0    0  501  502 -0.00000000000E+00 -0.00000000000E+00 -0.80145558545E+01  0.80145558545E+01  0.00000000000E+00 0. -1.
         21    1    1    2  503  502  0.18836881110E+02  0.91923434634E+01  0.19780196330E+03  0.19890938629E+03  0.00000000000E+00 0. -1.
         21    1    1    2  504  503 -0.18836881110E+02 -0.91923434634E+01  0.72602531155E+01  0.22181941836E+02  0.00000000000E+00 0. -1.
<mgrwt>
<rscale>  2 0.20960135E+02</rscale>
<asrwt>0</asrwt>
<pdfrwt beam="1">  1       21 0.32781038E-01 0.20960135E+02</pdfrwt>
<pdfrwt beam="2">  1       21 0.12330088E-02 0.20960135E+02</pdfrwt>
<totfact> 0.18201651E+07</totfact>
</mgrwt>
</event>
<event>
 4    1  0.9374408E+003  0.2674712E+02  0.7546771E-02  0.1637105E+00
         21   -1    0    0  503  501  0.00000000000E+00  0.00000000000E+00  0.13433354375E+03  0.13433354375E+03  0.00000000000E+00 0.  1.
         21   -1    0    0  501  502 -0.00000000000E+00 -0.00000000000E+00 -0.61384241563E+01  0.61384241563E+01  0.00000000000E+00 0.  1.
         21    1    1    2  503  504  0.15160496120E+02  0.22035602461E+02  0.89655517570E+02  0.93560249300E+02  0.00000000000E+00 0. -1.
         21    1    1    2  504  502 -0.15160496120E+02 -0.22035602461E+02  0.38539602024E+02  0.46911718606E+02  0.00000000000E+00 0. -1.
<mgrwt>
<rscale>  2 0.26747120E+02</rscale>
<asrwt>0</asrwt>
<pdfrwt beam="1">  1       21 0.20666697E-01 0.26747120E+02</pdfrwt>
<pdfrwt beam="2">  1       21 0.94437305E-03 0.26747120E+02</pdfrwt>
<totfact> 0.65792582E+07</totfact>
</mgrwt>
</event>
<event>
 4    1  0.9374408E+003  0.2376919E+02  0.7546771E-02  0.1679337E+00
         21   -1    0    0  502  501  0.00000000000E+00  0.00000000000E+00  0.35411927114E+02  0.35411927114E+02  0.00000000000E+00 0. -1.
         21   -1    0    0  504  502 -0.00000000000E+00 -0.00000000000E+00 -0.19556931050E+02  0.19556931050E+02  0.00000000000E+00 0. -1.
         21    1    1    2  503  501 -0.49626962761E+01  0.23245344543E+02  0.19723723019E+02  0.30886884709E+02  0.00000000000E+00 0. -1.
         21    1    1    2  504  503  0.49626962761E+01 -0.23245344543E+02 -0.38687269550E+01  0.24081973456E+02  0.00000000000E+00 0. -1.
<mgrwt>
<rscale>  2 0.23769190E+02</rscale>
<asrwt>0</asrwt>
<pdfrwt beam="1">  1       21 0.54479888E-02 0.23769190E+02</pdfrwt>
<pdfrwt beam="2">  1       21 0.30087586E-02 0.23769190E+02</pdfrwt>
<totfact> 0.10044905E+08</totfact>
</mgrwt>
</event>
<event>
 4    1  0.9374408E+003  0.2471705E+02  0.7546771E-02  0.1665100E+00
         21   -1    0    0  504  501  0.00000000000E+00  0.00000000000E+00  0.17503261383E+03  0.17503261383E+03  0.00000000000E+00 0. -1.
         21   -1    0    0  501  502 -0.00000000000E+00 -0.00000000000E+00 -0.57876302769E+01  0.57876302769E+01  0.00000000000E+00 0. -1.
         21    1    1    2  503  502 -0.16387968653E+02 -0.18503168504E+02  0.14158243023E+03  0.14372375347E+03  0.00000000000E+00 0. -1.
         21    1    1    2  504  503  0.16387968653E+02  0.18503168504E+02  0.27662553319E+02  0.37096490635E+02  0.00000000000E+00 0. -1.
<mgrwt>
<rscale>  2 0.24717054E+02</rscale>
<asrwt>0</asrwt>
<pdfrwt beam="1">  1       21 0.26928090E-01 0.24717054E+02</pdfrwt>
<pdfrwt beam="2">  1       21 0.89040479E-03 0.24717054E+02</pdfrwt>
<totfact> 0.44050873E+07</totfact>
</mgrwt>
</event>
<event>
 4    1  0.9374408E+003  0.3125816E+02  0.7546771E-02  0.1584584E+00
         21   -1    0    0  503  501  0.00000000000E+00  0.00000000000E+00  0.20521587638E+03  0.20521587638E+03  0.00000000000E+00 0.  1.
         21   -1    0    0  501  502 -0.00000000000E+00 -0.00000000000E+00 -0.64078571859E+01  0.64078571859E+01  0.00000000000E+00 0.  1.
         21    1    1    2  503  504  0.16457062205E+02  0.26575134813E+02  0.15304296313E+03  0.15620250078E+03  0.00000000000E+00 0. -1.
         21    1    1    2  504  502 -0.16457062205E+02 -0.26575134813E+02  0.45765056063E+02  0.55421232784E+02  0.00000000000E+00 0. -1.
<mgrwt>
<rscale>  2 0.31258162E+02</rscale>
<asrwt>0</asrwt>
<pdfrwt beam="1">  1       21 0.31571668E-01 0.31258162E+02</pdfrwt>
<pdfrwt beam="2">  1       21 0.98582434E-03 0.31258162E+02</pdfrwt>
<totfact> 0.29661548E+07</totfact>
</mgrwt>
</event>
<event>
 4    1  0.9374408E+003  0.2464229E+02  0.7546771E-02  0.1666194E+00
         21   -1    0    0  502  501  0.00000000000E+00  0.00000000000E+00  0.13647083275E+02  0.13647083275E+02  0.00000000000E+00 0.  1.
         21   -1    0    0  504  502 -0.00000000000E+00 -0.00000000000E+00 -0.67641553627E+02  0.67641553627E+02  0.00000000000E+00 0.  1.
         21    1    1    2  503  501 -0.14140358160E+02  0.20181496996E+02 -0.50772508400E+02  0.56436603008E+02  0.00000000000E+00 0. -1.
         21    1    1    2  504  503  0.14140358160E+02 -0.20181496996E+02 -0.32219619531E+01  0.24852033894E+02  0.00000000000E+00 0. -1.
<mgrwt>
<rscale>  2 0.24642292E+02</rscale>
<asrwt>0</asrwt>
<pdfrwt beam="1">  1       21 0.20995513E-02 0.24642292E+02</pdfrwt>
<pdfrwt beam="2">  1       21 0.10406393E-01 0.24642292E+02</pdfrwt>
<totfact> 0.61683547E+07</totfact>
</mgrwt>
</event>
<event>
 4    1  0.9374408E+003  0.4060247E+02  0.7546771E-02  0.1503824E+00
         21   -1    0    0  502  501  0.00000000000E+00  0.00000000000E+00  0.31874726239E+02  0.31874726239E+02  0.00000000000E+00 0.  1.
         21   -1    0    0  503  502 -0.00000000000E+00 -0.00000000000E+00 -0.10540096229E+03  0.10540096229E+03  0.00000000000E+00 0.  1.
         21    1    1    2  503  504 -0.40594718963E+02  0.79307593482E+00 -0.85746817006E+02  0.94874004889E+02  0.00000000000E+00 0.  1.
         21    1    1    2  504  501  0.40594718963E+02 -0.79307593482E+00  0.12220580950E+02  0.42401683644E+02  0.00000000000E+00 0.  1.
<mgrwt>
<rscale>  2 0.40602465E+02</rscale>
<asrwt>0</asrwt>
<pdfrwt beam="1">  1       21 0.49038040E-02 0.40602465E+02</pdfrwt>
<pdfrwt beam="2">  1       21 0.16215533E-01 0.40602465E+02</pdfrwt>
<totfact> 0.83161050E+06</totfact>
</mgrwt>
</event>
<event>
 4    1  0.9374408E+003  0.2618523E+02  0.7546771E-02  0.1644539E+00
         21   -1    0    0  504  501  0.00000000000E+00  0.00000000000E+00  0.59655954654E+01  0.59655954654E+01  0.00000000000E+00 0. -1.
         21   -1    0    0  501  502 -0.00000000000E+00 -0.00000000000E+00 -0.25417773193E+03  0.25417773193E+03  0.00000000000E+00 0. -1.
         21    1    1    2  503  502  0.12669379314E+02 -0.22916213871E+02 -0.22037751894E+03  0.22192772897E+03  0.00000000000E+00 0.  1.
         21    1    1    2  504  503 -0.12669379314E+02  0.22916213871E+02 -0.27834617520E+02  0.38215598424E+02  0.00000000000E+00 0.  1.
<mgrwt>
<rscale>  2 0.26185225E+02</rscale>
<asrwt>0</asrwt>
<pdfrwt beam="1">  1       21 0.91778433E-03 0.26185225E+02</pdfrwt>
<pdfrwt beam="2">  1       21 0.39104249E-01 0.26185225E+02</pdfrwt>
<totfact> 0.21410259E+07</totfact>
</mgrwt>
</event>
<event>
 4    1  0.9374408E+003  0.2716646E+02  0.7546771E-02  0.1631702E+00
         21   -1    0    0  502  501  0.00000000000E+00  0.00000000000E+00  0.22275913054E+02  0.22275913054E+02  0.00000000000E+00 0.  1.
         21   -1    0    0  503  502 -0.00000000000E+00 -0.00000000000E+00 -0.79816386921E+02  0.79816386921E+02  0.00000000000E+00 0.  1.
         21    1    1    2  503  504 -0.26959311094E+02 -0.33484487601E+01 -0.67810150064E+02  0.73049524402E+02  0.00000000000E+00 0.  1.
         21    1    1    2  504  501  0.26959311094E+02  0.33484487601E+01  0.10269676197E+02  0.29042775572E+02  0.00000000000E+00 0.  1.
<mgrwt>
<rscale>  2 0.27166460E+02</rscale>
<asrwt>0</asrwt>
<pdfrwt beam="1">  1       21 0.34270636E-02 0.27166460E+02</pdfrwt>
<pdfrwt beam="2">  1       21 0.12279444E-01 0.27166460E+02</pdfrwt>
<totfact> 0.22273256E+07</totfact>
</mgrwt>
</event>
<event>
 4    1  0.9374408E+003  0.2232925E+02  0.7546771E-02  0.1702619E+00
         21   -1    0    0  503  501  0.00000000000E+00  0.00000000000E+00  0.14939401747E+01  0.14939401747E+01  0.00000000000E+00 0. -1.
         21   -1    0    0  501  502 -0.00000000000E+00 -0.00000000000E+00 -0.43504597681E+03  0.43504597681E+03  0.00000000000E+00 0. -1.
         21    1    1    2  503  504 -0.17931463584E+02 -0.13306312995E+02 -0.11145069753E+03  0.11366553274E+03  0.00000000000E+00 0. -1.
         21    1    1    2  504  502  0.17931463584E+02  0.13306312995E+02 -0.32210133910E+03  0.32287438425E+03  0.00000000000E+00 0. -1.
<mgrwt>
<rscale>  2 0.22329249E+02</rscale>
<asrwt>0</asrwt>
<pdfrwt beam="1">  1       21 0.22983666E-03 0.22329249E+02</pdfrwt>
<pdfrwt beam="2">  1       21 0.66930234E-01 0.22329249E+02</pdfrwt>
<totfact> 0.55704632E+07</totfact>
</mgrwt>
</event>
<event>
 4    1  0.9374408E+003  0.2335280E+02  0.7546771E-02  0.1685854E+00
         21   -1    0    0  503  501  0.00000000000E+00  0.00000000000E+00  0.96062772984E+02  0.96062772984E+02  0.00000000000E+00 0. -1.
         21   -1    0    0  501  502 -0.00000000000E+00 -0.00000000000E+00 -0.98104812614E+01  0.98104812614E+01  0.00000000000E+00 0. -1.
         21    1    1    2  503  504 -0.68338857890E+01  0.22330505362E+02  0.77487186369E+02  0.80929707253E+02  0.00000000000E+00 0. -1.
         21    1    1    2  504  502  0.68338857890E+01 -0.22330505362E+02  0.87651053530E+01  0.24943546992E+02  0.00000000000E+00 0. -1.
<mgrwt>
<rscale>  2 0.23352804E+02</rscale>
<asrwt>0</asrwt>
<pdfrwt beam="1">  1       21 0.14778888E-01 0.23352804E+02</pdfrwt>
<pdfrwt beam="2">  1       21 0.15093049E-02 0.23352804E+02</pdfrwt>
<totfact> 0.55896013E+07</totfact>
</mgrwt>
</event>
<event>
 4    1  0.9374408E+003  0.2468960E+02  0.7546771E-02  0.1665501E+00
         21   -1    0    0  504  501  0.00000000000E+00  0.00000000000E+00  0.10382056708E+03  0.10382056708E+03  0.00000000000E+00 0. -1.
         21   -1    0    0  501  502 -0.00000000000E+00 -0.00000000000E+00 -0.22860533382E+02  0.22860533382E+02  0.00000000000E+00 0. -1.
         21    1    1    2  503  502  0.24648960548E+02 -0.14160570766E+01  0.95083924557E+02  0.98237106955E+02  0.00000000000E+00 0.  1.
         21    1    1    2  504  503 -0.24648960548E+02  0.14160570766E+01 -0.14123890858E+02  0.28443993508E+02  0.00000000000E+00 0.  1.
<mgrwt>
<rscale>  2 0.24689603E+02</rscale>
<asrwt>0</asrwt>
<pdfrwt beam="1">  1       21 0.15972395E-01 0.24689603E+02</pdfrwt>
<pdfrwt beam="2">  1       21 0.35170052E-02 0.24689603E+02</pdfrwt>
<totfact> 0.13415233E+07</totfact>
</mgrwt>
</event>
<event>
 4    1  0.9374408E+003  0.2928997E+02  0.7546771E-02  0.1606072E+00
         21   -1    0    0  502  501  0.00000000000E+00  0.00000000000E+00  0.56124154158E+00  0.56124154158E+00  0.00000000000E+00 0. -1.
         21   -1    0    0  503  502 -0.00000000000E+00 -0.00000000000E+00 -0.16729536563E+04  0.16729536563E+04  0.00000000000E+00 0. -1.
         21    1    1    2  503  504  0.26262200228E+02  0.12969163054E+02 -0.10820077457E+04  0.10824041131E+04  0.00000000000E+00 0. -1.
         21    1    1    2  504  501 -0.26262200228E+02 -0.12969163054E+02 -0.59038466901E+03  0.59111078467E+03  0.00000000000E+00 0. -1.
<mgrwt>
<rscale>  2 0.29289970E+02</rscale>
<asrwt>0</asrwt>
<pdfrwt beam="1">  1       21 0.86345496E-04 0.29289970E+02</pdfrwt>
<pdfrwt beam="2">  1       21 0.25737557E+00 0.29289970E+02</pdfrwt>
<totfact> 0.97799419E+06</totfact>
</mgrwt>
</event>
<event>
 4    1  0.9374408E+003  0.6396907E+02  0.7546771E-02  0.1381892E+00
         21   -1    0    0  502  501  0.00000000000E+00  0.00000000000E+00  0.57219855366E+02  0.57219855366E+02  0.00000000000E+00 0.  1.
         21   -1    0    0  504  502 -0.00000000000E+00 -0.00000000000E+00 -0.13879370215E+03  0.13879370215E+03  0.00000000000E+00 0.  1.
         21    1    1    2  503  501 -0.47563018791E+02  0.42776170037E+02 -0.10902269317E+03  0.12640407076E+03  0.00000000000E+00 0.  1.
         21    1    1    2  504  503  0.47563018791E+02 -0.42776170037E+02  0.27448846379E+02  0.69609486760E+02  0.00000000000E+00 0.  1.
<mgrwt>
<rscale>  2 0.63969067E+02</rscale>
<asrwt>0</asrwt>
<pdfrwt beam="1">  1       21 0.88030546E-02 0.63969067E+02</pdfrwt>
<pdfrwt beam="2">  1       21 0.21352877E-01 0.63969067E+02</pdfrwt>
<totfact> 0.20044231E+06</totfact>
</mgrwt>
</event>
<event>
 4    1  0.9374408E+003  0.2135851E+02  0.7546771E-02  0.1719588E+00
         21   -1    0    0  504  501  0.00000000000E+00  0.00000000000E+00  0.51370949296E+01  0.51370949296E+01  0.00000000000E+00 0.  1.
         21   -1    0    0  501  502 -0.00000000000E+00 -0.00000000000E+00 -0.21842630058E+03  0.21842630058E+03  0.00000000000E+00 0.  1.
         21    1    1    2  503  502  0.27215843836E+01 -0.21184401620E+02 -0.19275605852E+03  0.19393577285E+03  0.00000000000E+00 0.  1.
         21    1    1    2  504  503 -0.27215843836E+01  0.21184401620E+02 -0.20533147130E+02  0.29627622662E+02  0.00000000000E+00 0.  1.
<mgrwt>
<rscale>  2 0.21358509E+02</rscale>
<asrwt>0</asrwt>
<pdfrwt beam="1">  1       21 0.79032227E-03 0.21358509E+02</pdfrwt>
<pdfrwt beam="2">  1       21 0.33604047E-01 0.21358509E+02</pdfrwt>
<totfact> 0.33990652E+07</totfact>
</mgrwt>
</event>
<event>
 4    1  0.9374408E+003  0.2157916E+02  0.7546771E-02  0.1715633E+00
         21   -1    0    0  504  501  0.00000000000E+00  0.00000000000E+00  0.22781258382E+01  0.22781258382E+01  0.00000000000E+00 0.  1.
         21   -1    0    0  501  502 -0.00000000000E+00 -0.00000000000E+00 -0.35983342167E+03  0.35983342167E+03  0.00000000000E+00 0.  1.
         21    1    1    2  503  502  0.91386833749E+01  0.19548520593E+02 -0.59783138744E+02  0.63558507451E+02  0.00000000000E+00 0.  1.
         21    1    1    2  504  503 -0.91386833749E+01 -0.19548520593E+02 -0.29777215709E+03  0.29855304006E+03  0.00000000000E+00 0.  1.
<mgrwt>
<rscale>  2 0.21579161E+02</rscale>
<asrwt>0</asrwt>
<pdfrwt beam="1">  1       21 0.35048115E-03 0.21579161E+02</pdfrwt>
<pdfrwt beam="2">  1       21 0.55358949E-01 0.21579161E+02</pdfrwt>
<totfact> 0.43750931E+07</totfact>
</mgrwt>
</event>
<event>
 4    1  0.9374408E+003  0.2305482E+02  0.7546771E-02  0.1690623E+00
         21   -1    0    0  504  501  0.00000000000E+00  0.00000000000E+00  0.76798606572E+02  0.76798606572E+02  0.00000000000E+00 0. -1.
         21   -1    0    0  501  502 -0.00000000000E+00 -0.00000000000E+00 -0.18205589177E+02  0.18205589177E+02  0.00000000000E+00 0. -1.
         21    1    1    2  503  502  0.13348838105E+02  0.18797165626E+02  0.66694894450E+02  0.70567229363E+02  0.00000000000E+00 0. -1.
         21    1    1    2  504  503 -0.13348838105E+02 -0.18797165626E+02 -0.81018770551E+01  0.24436966386E+02  0.00000000000E+00 0. -1.
<mgrwt>
<rscale>  2 0.23054824E+02</rscale>
<asrwt>0</asrwt>
<pdfrwt beam="1">  1       21 0.11815170E-01 0.23054824E+02</pdfrwt>
<pdfrwt beam="2">  1       21 0.28008599E-02 0.23054824E+02</pdfrwt>
<totfact> 0.31431378E+07</totfact>
</mgrwt>
</event>
<event>
 4    1  0.9374408E+003  0.2336882E+02  0.7546771E-02  0.1685600E+00
         21   -1    0    0  503  501  0.00000000000E+00  0.00000000000E+00  0.20018481627E+02  0.20018481627E+02  0.00000000000E+00 0. -1.
         21   -1    0    0  501  502 -0.00000000000E+00 -0.00000000000E+00 -0.31803745924E+02  0.31803745924E+02  0.00000000000E+00 0. -1.
         21    1    1    2  503  504  0.47102295759E+01  0.22889201229E+02 -0.15665043976E+02  0.28133528011E+02  0.00000000000E+00 0.  1.
         21    1    1    2  504  502 -0.47102295759E+01 -0.22889201229E+02  0.38797796787E+01  0.23688699540E+02  0.00000000000E+00 0.  1.
<mgrwt>
<rscale>  2 0.23368821E+02</rscale>
<asrwt>0</asrwt>
<pdfrwt beam="1">  1       21 0.30797664E-02 0.23368821E+02</pdfrwt>
<pdfrwt beam="2">  1       21 0.48928840E-02 0.23368821E+02</pdfrwt>
<totfact> 0.11441690E+08</totfact>
</mgrwt>
</event>
<event>
 4    1  0.9374408E+003  0.2412945E+02  0.7546771E-02  0.1673830E+00
         21   -1    0    0  504  501  0.00000000000E+00  0.00000000000E+00  0.14637836378E+02  0.14637836378E+02  0.00000000000E+00 0.  1.
         21   -1    0    0  501  502 -0.00000000000E+00 -0.00000000000E+00 -0.65767425977E+02  0.65767425977E+02  0.00000000000E+00 0.  1.
         21    1    1    2  503  502  0.21486569663E+02 -0.10979879124E+02 -0.50838358399E+02  0.56274053578E+02  0.00000000000E+00 0. -1.
         21    1    1    2  504  503 -0.21486569663E+02  0.10979879124E+02 -0.29123120047E+00  0.24131208778E+02  0.00000000000E+00 0. -1.
<mgrwt>
<rscale>  2 0.24129451E+02</rscale>
<asrwt>0</asrwt>
<pdfrwt beam="1">  1       21 0.22519749E-02 0.24129451E+02</pdfrwt>
<pdfrwt beam="2">  1       21 0.10118065E-01 0.24129451E+02</pdfrwt>
<totfact> 0.57698669E+07</totfact>
</mgrwt>
</event>
<event>
 4    1  0.9374408E+003  0.2062026E+02  0.7546771E-02  0.1733267E+00
         21   -1    0    0  504  501  0.00000000000E+00  0.00000000000E+00  0.85412442030E+01  0.85412442030E+01  0.00000000000E+00 0. -1.
         21   -1    0    0  501  502 -0.00000000000E+00 -0.00000000000E+00 -0.74677985285E+02  0.74677985285E+02  0.00000000000E+00 0. -1.
         21    1    1    2  503  502 -0.78469749922E-01 -0.20620112484E+02 -0.57093580217E+02  0.60703147352E+02  0.00000000000E+00 0.  1.
         21    1    1    2  504  503  0.78469749922E-01  0.20620112484E+02 -0.90431608651E+01  0.22516082137E+02  0.00000000000E+00 0.  1.
<mgrwt>
<rscale>  2 0.20620262E+02</rscale>
<asrwt>0</asrwt>
<pdfrwt beam="1">  1       21 0.13140377E-02 0.20620262E+02</pdfrwt>
<pdfrwt beam="2">  1       21 0.11488920E-01 0.20620262E+02</pdfrwt>
<totfact> 0.10174634E+08</totfact>
</mgrwt>
</event>
<event>
 4    1  0.9374408E+003  0.2066573E+02  0.7546771E-02  0.1732404E+00
         21   -1    0    0  502  501  0.00000000000E+00  0.00000000000E+00  0.10599442882E+02  0.10599442882E+02  0.00000000000E+00 0. -1.
         21   -1    0    0  503  502 -0.00000000000E+00 -0.00000000000E+00 -0.44377993065E+02  0.44377993065E+02  0.00000000000E+00 0. -1.
         21    1    1    2  503  504  0.14818815207E+02  0.14403993376E+02 -0.25230343667E+02  0.32613533247E+02  0.00000000000E+00 0.  1.
         21    1    1    2  504  501 -0.14818815207E+02 -0.14403993376E+02 -0.85482065162E+01  0.22363902699E+02  0.00000000000E+00 0.  1.
<mgrwt>
<rscale>  2 0.20665728E+02</rscale>
<asrwt>0</asrwt>
<pdfrwt beam="1">  1       21 0.16306835E-02 0.20665728E+02</pdfrwt>
<pdfrwt beam="2">  1       21 0.68273836E-02 0.20665728E+02</pdfrwt>
<totfact> 0.17196923E+08</totfact>
</mgrwt>
</event>
<event>
 4    1  0.9374408E+003  0.2391474E+02  0.7546771E-02  0.1677098E+00
         21   -1    0    0  503  501  0.00000000000E+00  0.00000000000E+00  0.10110080329E+01  0.10110080329E+01  0.00000000000E+00 0.  1.
         21   -1    0    0  501  502 -0.00000000000E+00 -0.00000000000E+00 -0.68111495551E+03  0.68111495551E+03  0.00000000000E+00 0.  1.
         21    1    1    2  503  504 -0.15254925556E+02  0.18417442788E+02 -0.48045558998E+03  0.48105040162E+03  0.00000000000E+00 0.  1.
         21    1    1    2  504  502  0.15254925556E+02 -0.18417442788E+02 -0.19964835749E+03  0.20107556192E+03  0.00000000000E+00 0.  1.
<mgrwt>
<rscale>  2 0.23914743E+02</rscale>
<asrwt>0</asrwt>
<pdfrwt beam="1">  1       21 0.15553980E-03 0.23914743E+02</pdfrwt>
<pdfrwt beam="2">  1       21 0.10478685E+00 0.23914743E+02</pdfrwt>
<totfact> 0.38442487E+07</totfact>
</mgrwt>
</event>
<event>
 4    1  0.9374408E+003  0.2102647E+02  0.7546771E-02  0.1725654E+00
         21   -1    0    0  502  501  0.00000000000E+00  0.00000000000E+00  0.10377019324E+02  0.10377019324E+02  0.00000000000E+00 0.  1.
         21   -1    0    0  504  502 -0.00000000000E+00 -0.00000000000E+00 -0.59971646021E+02  0.59971646021E+02  0.00000000000E+00 0.  1.
         21    1    1    2  503  501  0.58983507672E+00  0.21018200256E+02 -0.43725594266E+02  0.48518452586E+02  0.00000000000E+00 0.  1.
         21    1    1    2  504  503 -0.58983507672E+00 -0.21018200256E+02 -0.58690324314E+01  0.21830212759E+02  0.00000000000E+00 0.  1.
<mgrwt>
<rscale>  2 0.21026475E+02</rscale>
<asrwt>0</asrwt>
<pdfrwt beam="1">  1       21 0.15964645E-02 0.21026475E+02</pdfrwt>
<pdfrwt beam="2">  1       21 0.92264073E-02 0.21026475E+02</pdfrwt>
<totfact> 0.10946651E+08</totfact>
</mgrwt>
</event>
<event>
 4    1  0.9374408E+003  0.3814430E+02  0.7546771E-02  0.1522329E+00
         21   -1    0    0  504  501  0.00000000000E+00  0.00000000000E+00  0.54322215702E+03  0.54322215702E+03  0.00000000000E+00 0.  1.
         21   -1    0    0  501  502 -0.00000000000E+00 -0.00000000000E+00 -0.29654394031E+01  0.29654394031E+01  0.00000000000E+00 0.  1.
         21    1    1    2  503  502 -0.23644091539E+02 -0.29932337687E+02  0.35508706252E+03  0.35712996216E+03  0.00000000000E+00 0. -1.
         21    1    1    2  504  503  0.23644091539E+02  0.29932337687E+02  0.18516965510E+03  0.18905763427E+03  0.00000000000E+00 0. -1.
<mgrwt>
<rscale>  2 0.38144304E+02</rscale>
<asrwt>0</asrwt>
<pdfrwt beam="1">  1       21 0.83572560E-01 0.38144304E+02</pdfrwt>
<pdfrwt beam="2">  1       21 0.45622188E-03 0.38144304E+02</pdfrwt>
<totfact> 0.14054967E+07</totfact>
</mgrwt>
</event>
<event>
 4    1  0.9374408E+003  0.2002847E+02  0.7546771E-02  0.1744763E+00
         21   -1    0    0  503  501  0.00000000000E+00  0.00000000000E+00  0.29885490158E+01  0.29885490158E+01  0.00000000000E+00 0. -1.
         21   -1    0    0  501  502 -0.00000000000E+00 -0.00000000000E+00 -0.14872239653E+03  0.14872239653E+03  0.00000000000E+00 0. -1.
         21    1    1    2  503  504 -0.42756607963E+01 -0.19566761180E+02 -0.96549916963E+02  0.98605404943E+02  0.00000000000E+00 0. -1.
         21    1    1    2  504  502  0.42756607963E+01  0.19566761180E+02 -0.49183930552E+02  0.53105540604E+02  0.00000000000E+00 0. -1.
<mgrwt>
<rscale>  2 0.20028465E+02</rscale>
<asrwt>0</asrwt>
<pdfrwt beam="1">  1       21 0.45977681E-03 0.20028465E+02</pdfrwt>
<pdfrwt beam="2">  1       21 0.22880367E-01 0.20028465E+02</pdfrwt>
<totfact> 0.14819688E+08</totfact>
</mgrwt>
</event>
<event>
 4    1  0.9374408E+003  0.2114636E+02  0.7546771E-02  0.1723448E+00
         21   -1    0    0  502  501  0.00000000000E+00  0.00000000000E+00  0.48356484058E+02  0.48356484058E+02  0.00000000000E+00 0.  1.
         21   -1    0    0  504  502 -0.00000000000E+00 -0.00000000000E+00 -0.13175508833E+02  0.13175508833E+02  0.00000000000E+00 0.  1.
         21    1    1    2  503  501  0.11337327576E+02 -0.17850307623E+02  0.34389462604E+02  0.40370826311E+02  0.00000000000E+00 0.  1.
         21    1    1    2  504  503 -0.11337327576E+02  0.17850307623E+02  0.79151262144E+00  0.21161166580E+02  0.00000000000E+00 0.  1.
<mgrwt>
<rscale>  2 0.21146359E+02</rscale>
<asrwt>0</asrwt>
<pdfrwt beam="1">  1       21 0.74394590E-02 0.21146359E+02</pdfrwt>
<pdfrwt beam="2">  1       21 0.20270014E-02 0.21146359E+02</pdfrwt>
<totfact> 0.10821692E+08</totfact>
</mgrwt>
</event>
<event>
 4    1  0.9374408E+003  0.2422789E+02  0.7546771E-02  0.1672346E+00
         21   -1    0    0  503  501  0.00000000000E+00  0.00000000000E+00  0.31075017078E+03  0.31075017078E+03  0.00000000000E+00 0.  1.
         21   -1    0    0  501  502 -0.00000000000E+00 -0.00000000000E+00 -0.45309582086E+01  0.45309582086E+01  0.00000000000E+00 0.  1.
         21    1    1    2  503  504 -0.12588588194E+02 -0.20700673005E+02  0.32733489160E+02  0.40724338278E+02  0.00000000000E+00 0. -1.
         21    1    1    2  504  502  0.12588588194E+02  0.20700673005E+02  0.27348572341E+03  0.27455679071E+03  0.00000000000E+00 0. -1.
<mgrwt>
<rscale>  2 0.24227885E+02</rscale>
<asrwt>0</asrwt>
<pdfrwt beam="1">  1       21 0.47807702E-01 0.24227885E+02</pdfrwt>
<pdfrwt beam="2">  1       21 0.69707073E-03 0.24227885E+02</pdfrwt>
<totfact> 0.21681204E+07</totfact>
</mgrwt>
</event>
<event>
 4    1  0.9374408E+003  0.2196832E+02  0.7546771E-02  0.1708800E+00
         21   -1    0    0  502  501  0.00000000000E+00  0.00000000000E+00  0.53789406492E+01  0.53789406492E+01  0.00000000000E+00 0. -1.
         21   -1    0    0  503  502 -0.00000000000E+00 -0.00000000000E+00 -0.98249401384E+02  0.98249401384E+02  0.00000000000E+00 0. -1.
         21    1    1    2  503  504 -0.21781436097E+02 -0.28594223753E+01 -0.31170058651E+02  0.38133709642E+02  0.00000000000E+00 0. -1.
         21    1    1    2  504  501  0.21781436097E+02  0.28594223753E+01 -0.61700402084E+02  0.65494632391E+02  0.00000000000E+00 0. -1.
<mgrwt>
<rscale>  2 0.21968324E+02</rscale>
<asrwt>0</asrwt>
<pdfrwt beam="1">  1       21 0.82752943E-03 0.21968324E+02</pdfrwt>
<pdfrwt beam="2">  1       21 0.15115291E-01 0.21968324E+02</pdfrwt>
<totfact> 0.13076702E+08</totfact>
</mgrwt>
</event>
<event>
 4    1  0.9374408E+003  0.3592299E+02  0.7546771E-02  0.1540554E+00
         21   -1    0    0  502  501  0.00000000000E+00  0.00000000000E+00  0.27175986978E+04  0.27175986978E+04  0.00000000000E+00 0.  1.
         21   -1    0    0  503  502 -0.00000000000E+00 -0.00000000000E+00 -0.10655008981E+01  0.10655008981E+01  0.00000000000E+00 0.  1.
         21    1    1    2  503  504  0.18861728645E+02 -0.30572804480E+02  0.34619131280E+03  0.34805012030E+03  0.00000000000E+00 0. -1.
         21    1    1    2  504  501 -0.18861728645E+02  0.30572804480E+02  0.23703418841E+04  0.23706140784E+04  0.00000000000E+00 0. -1.
<mgrwt>
<rscale>  2 0.35922990E+02</rscale>
<asrwt>0</asrwt>
<pdfrwt beam="1">  1       21 0.41808656E+00 0.35922990E+02</pdfrwt>
<pdfrwt beam="2">  1       21 0.16392539E-03 0.35922990E+02</pdfrwt>
<totfact> 0.55230612E+05</totfact>
</mgrwt>
</event>
<event>
 4    1  0.9374408E+003  0.3273321E+02  0.7546771E-02  0.1569704E+00
         21   -1    0    0  502  501  0.00000000000E+00  0.00000000000E+00  0.17808901253E+03  0.17808901253E+03  0.00000000000E+00 0.  1.
         21   -1    0    0  503  502 -0.00000000000E+00 -0.00000000000E+00 -0.16273726201E+02  0.16273726201E+02  0.00000000000E+00 0.  1.
         21    1    1    2  503  504 -0.24450994889E+02  0.21762624125E+02  0.37541457434E+01  0.32947785512E+02  0.00000000000E+00 0.  1.
         21    1    1    2  504  501  0.24450994889E+02 -0.21762624125E+02  0.15806114059E+03  0.16141495322E+03  0.00000000000E+00 0.  1.
<mgrwt>
<rscale>  2 0.32733209E+02</rscale>
<asrwt>0</asrwt>
<pdfrwt beam="1">  1       21 0.27398308E-01 0.32733209E+02</pdfrwt>
<pdfrwt beam="2">  1       21 0.25036503E-02 0.32733209E+02</pdfrwt>
<totfact> 0.92323725E+06</totfact>
</mgrwt>
</event>
<event>
 4    1  0.9374408E+003  0.9100271E+02  0.7546771E-02  0.1300442E+00
         21   -1    0    0  502  501  0.00000000000E+00  0.00000000000E+00  0.10819221663E+03  0.10819221663E+03  0.00000000000E+00 0. -1.
         21   -1    0    0  503  502 -0.00000000000E+00 -0.00000000000E+00 -0.77043857848E+02  0.77043857848E+02  0.00000000000E+00 0. -1.
         21    1    1    2  503  504  0.90891413232E+02 -0.44993478924E+01  0.81159290246E+01  0.91363895684E+02  0.00000000000E+00 0.  1.
         21    1    1    2  504  501 -0.90891413232E+02  0.44993478924E+01  0.23032429755E+02  0.93872178792E+02  0.00000000000E+00 0.  1.
<mgrwt>
<rscale>  2 0.91002709E+02</rscale>
<asrwt>0</asrwt>
<pdfrwt beam="1">  1       21 0.16644956E-01 0.91002709E+02</pdfrwt>
<pdfrwt beam="2">  1       21 0.11852901E-01 0.91002709E+02</pdfrwt>
<totfact> 0.19134796E+06</totfact>
</mgrwt>
</event>
<event>
 4    1  0.9374408E+003  0.2056524E+02  0.7546771E-02  0.1734316E+00
         21   -1    0    0  504  501  0.00000000000E+00  0.00000000000E+00  0.29876295256E+03  0.29876295256E+03  0.00000000000E+00 0.  1.
         21   -1    0    0  501  502 -0.00000000000E+00 -0.00000000000E+00 -0.15148724970E+01  0.15148724970E+01  0.00000000000E+00 0.  1.
         21    1    1    2  503  502 -0.20115428221E+02 -0.42776718140E+01  0.18705834371E+03  0.18818542154E+03  0.00000000000E+00 0.  1.
         21    1    1    2  504  503  0.20115428221E+02  0.42776718140E+01  0.11018973635E+03  0.11209240351E+03  0.00000000000E+00 0.  1.
<mgrwt>
<rscale>  2 0.20565236E+02</rscale>
<asrwt>0</asrwt>
<pdfrwt beam="1">  1       21 0.45963484E-01 0.20565236E+02</pdfrwt>
<pdfrwt beam="2">  1       21 0.23305754E-03 0.20565236E+02</pdfrwt>
<totfact> 0.11204997E+08</totfact>
</mgrwt>
</event>
<event>
 4    1  0.9374408E+003  0.2060913E+02  0.7546771E-02  0.1733479E+00
         21   -1    0    0  503  501  0.00000000000E+00  0.00000000000E+00  0.15348167206E+01  0.15348167206E+01  0.00000000000E+00 0.  1.
         21   -1    0    0  501  502 -0.00000000000E+00 -0.00000000000E+00 -0.28991639978E+03  0.28991639978E+03  0.00000000000E+00 0.  1.
         21    1    1    2  503  504  0.15203413182E+02 -0.13913746184E+02 -0.17526465668E+03  0.17647219608E+03  0.00000000000E+00 0.  1.
         21    1    1    2  504  502 -0.15203413182E+02  0.13913746184E+02 -0.11311692638E+03  0.11497902042E+03  0.00000000000E+00 0.  1.
<mgrwt>
<rscale>  2 0.20609127E+02</rscale>
<asrwt>0</asrwt>
<pdfrwt beam="1">  1       21 0.23612577E-03 0.20609127E+02</pdfrwt>
<pdfrwt beam="2">  1       21 0.44602499E-01 0.20609127E+02</pdfrwt>
<totfact> 0.11650983E+08</totfact>
</mgrwt>
</event>
<event>
 4    1  0.9374408E+003  0.2092268E+02  0.7546771E-02  0.1727578E+00
         21   -1    0    0  502  501  0.00000000000E+00  0.00000000000E+00  0.20540170965E+01  0.20540170965E+01  0.00000000000E+00 0. -1.
         21   -1    0    0  504  502 -0.00000000000E+00 -0.00000000000E+00 -0.38761559918E+03  0.38761559918E+03  0.00000000000E+00 0. -1.
         21    1    1    2  503  501  0.39706024461E+01  0.20542463640E+02 -0.32350448252E+03  0.32418036447E+03  0.00000000000E+00 0. -1.
         21    1    1    2  504  503 -0.39706024461E+01 -0.20542463640E+02 -0.62057099563E+02  0.65489251808E+02  0.00000000000E+00 0. -1.
<mgrwt>
<rscale>  2 0.20922679E+02</rscale>
<asrwt>0</asrwt>
<pdfrwt beam="1">  1       21 0.31600289E-03 0.20922679E+02</pdfrwt>
<pdfrwt beam="2">  1       21 0.59633121E-01 0.20922679E+02</pdfrwt>
<totfact> 0.43595078E+07</totfact>
</mgrwt>
</event>
<event>
 4    1  0.9374408E+003  0.2089409E+02  0.7546771E-02  0.1728111E+00
         21   -1    0    0  504  501  0.00000000000E+00  0.00000000000E+00  0.97398273053E+03  0.97398273053E+03  0.00000000000E+00 0. -1.
         21   -1    0    0  501  502 -0.00000000000E+00 -0.00000000000E+00 -0.55160155761E+00  0.55160155761E+00  0.00000000000E+00 0. -1.
         21    1    1    2  503  502 -0.17941216439E+02 -0.10708679152E+02  0.69765909002E+03  0.69797189696E+03  0.00000000000E+00 0.  1.
         21    1    1    2  504  503  0.17941216439E+02  0.10708679152E+02  0.27577203895E+03  0.27656243513E+03  0.00000000000E+00 0.  1.
<mgrwt>
<rscale>  2 0.20894091E+02</rscale>
<asrwt>0</asrwt>
<pdfrwt beam="1">  1       21 0.14984212E+00 0.20894091E+02</pdfrwt>
<pdfrwt beam="2">  1       21 0.84862558E-04 0.20894091E+02</pdfrwt>
<totfact> 0.39241191E+07</totfact>
</mgrwt>
</event>
<event>
 4    1  0.9374408E+003  0.2231005E+02  0.7546771E-02  0.1702944E+00
         21   -1    0    0  502  501  0.00000000000E+00  0.00000000000E+00  0.26874102622E+02  0.26874102622E+02  0.00000000000E+00 0.  1.
         21   -1    0    0  504  502 -0.00000000000E+00 -0.00000000000E+00 -0.22561571879E+02  0.22561571879E+02  0.00000000000E+00 0.  1.
         21    1    1    2  503  501 -0.12233591178E+01 -0.22276479136E+02  0.12616500802E+02  0.25630337936E+02  0.00000000000E+00 0. -1.
         21    1    1    2  504  503  0.12233591178E+01  0.22276479136E+02 -0.83039700584E+01  0.23805336565E+02  0.00000000000E+00 0. -1.
<mgrwt>
<rscale>  2 0.22310046E+02</rscale>
<asrwt>0</asrwt>
<pdfrwt beam="1">  1       21 0.41344773E-02 0.22310046E+02</pdfrwt>
<pdfrwt beam="2">  1       21 0.34710111E-02 0.22310046E+02</pdfrwt>
<totfact> 0.12224702E+08</totfact>
</mgrwt>
</event>
<event>
 4    1  0.9374408E+003  0.2115969E+02  0.7546771E-02  0.1723203E+00
         21   -1    0    0  503  501  0.00000000000E+00  0.00000000000E+00  0.89437847940E+02  0.89437847940E+02  0.00000000000E+00 0.  1.
         21   -1    0    0  501  502 -0.00000000000E+00 -0.00000000000E+00 -0.61189932539E+01  0.61189932539E+01  0.00000000000E+00 0.  1.
         21    1    1    2  503  504 -0.50797072775E+00 -0.21153586845E+02  0.21283184963E+02  0.30011768239E+02  0.00000000000E+00 0.  1.
         21    1    1    2  504  502  0.50797072775E+00  0.21153586845E+02  0.62035669724E+02  0.65545072955E+02  0.00000000000E+00 0.  1.
<mgrwt>
<rscale>  2 0.21159685E+02</rscale>
<asrwt>0</asrwt>
<pdfrwt beam="1">  1       21 0.13759668E-01 0.21159685E+02</pdfrwt>
<pdfrwt beam="2">  1       21 0.94138365E-03 0.21159685E+02</pdfrwt>
<totfact> 0.12508083E+08</totfact>
</mgrwt>
</event>
<event>
 4    1  0.9374408E+003  0.2222632E+02  0.7546771E-02  0.1704367E+00
         21   -1    0    0  504  501  0.00000000000E+00  0.00000000000E+00  0.50240672926E+03  0.50240672926E+03  0.00000000000E+00 0.  1.
         21   -1    0    0  501  502 -0.00000000000E+00 -0.00000000000E+00 -0.13749268935E+01  0.13749268935E+01  0.00000000000E+00 0.  1.
         21    1    1    2  503  502 -0.84466493150E+01 -0.20558784053E+02  0.38495221184E+03  0.38559332837E+03  0.00000000000E+00 0.  1.
         21    1    1    2  504  503  0.84466493150E+01  0.20558784053E+02  0.11607959053E+03  0.11818832778E+03  0.00000000000E+00 0.  1.
<mgrwt>
<rscale>  2 0.22226324E+02</rscale>
<asrwt>0</asrwt>
<pdfrwt beam="1">  1       21 0.77293197E-01 0.22226324E+02</pdfrwt>
<pdfrwt beam="2">  1       21 0.21152762E-03 0.22226324E+02</pdfrwt>
<totfact> 0.46660677E+07</totfact>
</mgrwt>
</event>
<event>
 4    1  0.9374408E+003  0.2305230E+02  0.7546771E-02  0.1690664E+00
         21   -1    0    0  502  501  0.00000000000E+00  0.00000000000E+00  0.59803160631E+03  0.59803160631E+03  0.00000000000E+00 0. -1.
         21   -1    0    0  504  502 -0.00000000000E+00 -0.00000000000E+00 -0.12169592810E+01  0.12169592810E+01  0.00000000000E+00 0. -1.
         21    1    1    2  503  501 -0.15869673736E+02 -0.16720109218E+02  0.14276913669E+03  0.14461823878E+03  0.00000000000E+00 0. -1.
         21    1    1    2  504  503  0.15869673736E+02  0.16720109218E+02  0.45404551034E+03  0.45463032681E+03  0.00000000000E+00 0. -1.
<mgrwt>
<rscale>  2 0.23052301E+02</rscale>
<asrwt>0</asrwt>
<pdfrwt beam="1">  1       21 0.92004628E-01 0.23052301E+02</pdfrwt>
<pdfrwt beam="2">  1       21 0.18722498E-03 0.23052301E+02</pdfrwt>
<totfact> 0.38799829E+07</totfact>
</mgrwt>
</event>
<event>
 4    1  0.9374408E+003  0.3920689E+02  0.7546771E-02  0.1514130E+00
         21   -1    0    0  503  501  0.00000000000E+00  0.00000000000E+00  0.40684180366E+02  0.40684180366E+02  0.00000000000E+00 0. -1.
         21   -1    0    0  501  502 -0.00000000000E+00 -0.00000000000E+00 -0.64628572431E+02  0.64628572431E+02  0.00000000000E+00 0. -1.
         21    1    1    2  503  504  0.37666433047E+02 -0.10882090276E+02  0.21964776559E+02  0.44940310152E+02  0.00000000000E+00 0. -1.
         21    1    1    2  504  502 -0.37666433047E+02  0.10882090276E+02 -0.45909168624E+02  0.60372442646E+02  0.00000000000E+00 0. -1.
<mgrwt>
<rscale>  2 0.39206888E+02</rscale>
<asrwt>0</asrwt>
<pdfrwt beam="1">  1       21 0.62591047E-02 0.39206888E+02</pdfrwt>
<pdfrwt beam="2">  1       21 0.99428573E-02 0.39206888E+02</pdfrwt>
<totfact> 0.12875167E+07</totfact>
</mgrwt>
</event>
<event>
 4    1  0.9374408E+003  0.2183578E+02  0.7546771E-02  0.1711108E+00
         21   -1    0    0  502  501  0.00000000000E+00  0.00000000000E+00  0.20904863731E+02  0.20904863731E+02  0.00000000000E+00 0.  1.
         21   -1    0    0  504  502 -0.00000000000E+00 -0.00000000000E+00 -0.58722989280E+02  0.58722989280E+02  0.00000000000E+00 0.  1.
         21    1    1    2  503  501 -0.11445411842E+02 -0.18595804663E+02 -0.50045424018E+02  0.54601702065E+02  0.00000000000E+00 0. -1.
         21    1    1    2  504  503  0.11445411842E+02  0.18595804663E+02  0.12227298469E+02  0.25026150946E+02  0.00000000000E+00 0. -1.
<mgrwt>
<rscale>  2 0.21835783E+02</rscale>
<asrwt>0</asrwt>
<pdfrwt beam="1">  1       21 0.32161329E-02 0.21835783E+02</pdfrwt>
<pdfrwt beam="2">  1       21 0.90343060E-02 0.21835783E+02</pdfrwt>
<totfact> 0.39007177E+07</totfact>
</mgrwt>
</event>
<event>
 4    1  0.9374408E+003  0.2862856E+02  0.7546771E-02  0.1613762E+00
         21   -1    0    0  502  501  0.00000000000E+00  0.00000000000E+00  0.32481129884E+03  0.32481129884E+03  0.00000000000E+00 0. -1.
         21   -1    0    0  504  502 -0.00000000000E+00 -0.00000000000E+00 -0.47641670559E+01  0.47641670559E+01  0.00000000000E+00 0. -1.
         21    1    1    2  503  501 -0.31724645559E+01  0.28452238015E+02  0.47007542478E+02  0.55039108180E+02  0.00000000000E+00 0. -1.
         21    1    1    2  504  503  0.31724645559E+01 -0.28452238015E+02  0.27303958931E+03  0.27453635772E+03  0.00000000000E+00 0. -1.
<mgrwt>
<rscale>  2 0.28628559E+02</rscale>
<asrwt>0</asrwt>
<pdfrwt beam="1">  1       21 0.49970952E-01 0.28628559E+02</pdfrwt>
<pdfrwt beam="2">  1       21 0.73294903E-03 0.28628559E+02</pdfrwt>
<totfact> 0.19038521E+07</totfact>
</mgrwt>
</event>
<event>
 4    1  0.9374408E+003  0.2216446E+02  0.7546771E-02  0.1705423E+00
         21   -1    0    0  503  501  0.00000000000E+00  0.00000000000E+00  0.23386256636E+01  0.23386256636E+01  0.00000000000E+00 0. -1.
         21   -1    0    0  501  502 -0.00000000000E+00 -0.00000000000E+00 -0.23116076685E+03  0.23116076685E+03  0.00000000000E+00 0. -1.
         21    1    1    2  503  504 -0.51126530250E+01 -0.21566731552E+02 -0.79141713787E+02  0.82186823712E+02  0.00000000000E+00 0. -1.
         21    1    1    2  504  502  0.51126530250E+01  0.21566731552E+02 -0.14968042740E+03  0.15131256880E+03  0.00000000000E+00 0. -1.
<mgrwt>
<rscale>  2 0.22164456E+02</rscale>
<asrwt>0</asrwt>
<pdfrwt beam="1">  1       21 0.35978850E-03 0.22164456E+02</pdfrwt>
<pdfrwt beam="2">  1       21 0.35563201E-01 0.22164456E+02</pdfrwt>
<totfact> 0.98620319E+07</totfact>
</mgrwt>
</event>
<event>
 4    1  0.9374408E+003  0.2294484E+02  0.7546771E-02  0.1692406E+00
         21   -1    0    0  503  501  0.00000000000E+00  0.00000000000E+00  0.15199054386E+01  0.15199054386E+01  0.00000000000E+00 0.  1.
         21   -1    0    0  501  502 -0.00000000000E+00 -0.00000000000E+00 -0.52192064194E+03  0.52192064194E+03  0.00000000000E+00 0.  1.
         21    1    1    2  503  504 -0.21652756140E+02 -0.75910495615E+01 -0.10841737019E+03  0.11081873506E+03  0.00000000000E+00 0.  1.
         21    1    1    2  504  502  0.21652756140E+02  0.75910495615E+01 -0.41198336631E+03  0.41262181232E+03  0.00000000000E+00 0.  1.
<mgrwt>
<rscale>  2 0.22944844E+02</rscale>
<asrwt>0</asrwt>
<pdfrwt beam="1">  1       21 0.23383163E-03 0.22944844E+02</pdfrwt>
<pdfrwt beam="2">  1       21 0.80295475E-01 0.22944844E+02</pdfrwt>
<totfact> 0.37535813E+07</totfact>
</mgrwt>
</event>
<event>
 4    1  0.9374408E+003  0.2408848E+02  0.7546771E-02  0.1674450E+00
         21   -1    0    0  502  501  0.00000000000E+00  0.00000000000E+00  0.39092619479E+03  0.39092619479E+03  0.00000000000E+00 0. -1.
         21   -1    0    0  504  502 -0.00000000000E+00 -0.00000000000E+00 -0.25430673641E+01  0.25430673641E+01  0.00000000000E+00 0. -1.
         21    1    1    2  503  501 -0.40560723399E+01 -0.23744540630E+02  0.32113214619E+03  0.32203433086E+03  0.00000000000E+00 0.  1.
         21    1    1    2  504  503  0.40560723399E+01  0.23744540630E+02  0.67250981235E+02  0.71434931299E+02  0.00000000000E+00 0.  1.
<mgrwt>
<rscale>  2 0.24088481E+02</rscale>
<asrwt>0</asrwt>
<pdfrwt beam="1">  1       21 0.60142444E-01 0.24088481E+02</pdfrwt>
<pdfrwt beam="2">  1       21 0.39124144E-03 0.24088481E+02</pdfrwt>
<totfact> 0.32380617E+07</totfact>
</mgrwt>
</event>
<event>
 4    1  0.9374408E+003  0.2517230E+02  0.7546771E-02  0.1658539E+00
         21   -1    0    0  502  501  0.00000000000E+00  0.00000000000E+00  0.76045364872E+02  0.76045364872E+02  0.00000000000E+00 0.  1.
         21   -1    0    0  504  502 -0.00000000000E+00 -0.00000000000E+00 -0.11143970093E+02  0.11143970093E+02  0.00000000000E+00 0.  1.
         21    1    1    2  503  501 -0.15624710520E+02  0.19736087765E+02  0.10553756332E+02  0.27295173782E+02  0.00000000000E+00 0.  1.
         21    1    1    2  504  503  0.15624710520E+02 -0.19736087765E+02  0.54347638446E+02  0.59894161183E+02  0.00000000000E+00 0.  1.
<mgrwt>
<rscale>  2 0.25172301E+02</rscale>
<asrwt>0</asrwt>
<pdfrwt beam="1">  1       21 0.11699287E-01 0.25172301E+02</pdfrwt>
<pdfrwt beam="2">  1       21 0.17144570E-02 0.25172301E+02</pdfrwt>
<totfact> 0.69610843E+07</totfact>
</mgrwt>
</event>
<event>
 4    1  0.9374408E+003  0.2226342E+02  0.7546771E-02  0.1703736E+00
         21   -1    0    0  502  501  0.00000000000E+00  0.00000000000E+00  0.75617332980E+00  0.75617332980E+00  0.00000000000E+00 0.  1.
         21   -1    0    0  503  502 -0.00000000000E+00 -0.00000000000E+00 -0.71662862812E+03  0.71662862812E+03  0.00000000000E+00 0.  1.
         21    1    1    2  503  504 -0.74073871556E+01  0.20995011700E+02 -0.46270997051E+03  0.46324526626E+03  0.00000000000E+00 0. -1.
         21    1    1    2  504  501  0.74073871556E+01 -0.20995011700E+02 -0.25316248428E+03  0.25413953519E+03  0.00000000000E+00 0. -1.
<mgrwt>
<rscale>  2 0.22263421E+02</rscale>
<asrwt>0</asrwt>
<pdfrwt beam="1">  1       21 0.11633451E-03 0.22263421E+02</pdfrwt>
<pdfrwt beam="2">  1       21 0.11025041E+00 0.22263421E+02</pdfrwt>
<totfact> 0.51271555E+07</totfact>
</mgrwt>
</event>
<event>
 4    1  0.9374408E+003  0.3023726E+02  0.7546771E-02  0.1595481E+00
         21   -1    0    0  504  501  0.00000000000E+00  0.00000000000E+00  0.16447976913E+02  0.16447976913E+02  0.00000000000E+00 0. -1.
         21   -1    0    0  501  502 -0.00000000000E+00 -0.00000000000E+00 -0.81425910357E+02  0.81425910357E+02  0.00000000000E+00 0. -1.
         21    1    1    2  503  502 -0.52892146002E+01 -0.29771060452E+02 -0.60056225247E+02  0.67238694384E+02  0.00000000000E+00 0.  1.
         21    1    1    2  504  503  0.52892146002E+01  0.29771060452E+02 -0.49217081975E+01  0.30635192886E+02  0.00000000000E+00 0.  1.
<mgrwt>
<rscale>  2 0.30237259E+02</rscale>
<asrwt>0</asrwt>
<pdfrwt beam="1">  1       21 0.25304580E-02 0.30237259E+02</pdfrwt>
<pdfrwt beam="2">  1       21 0.12527063E-01 0.30237259E+02</pdfrwt>
<totfact> 0.35430826E+07</totfact>
</mgrwt>
</event>
<event>
 4    1  0.9374408E+003  0.2118684E+02  0.7546771E-02  0.1722707E+00
         21   -1    0    0  504  501  0.00000000000E+00  0.00000000000E+00  0.52954061874E+03  0.52954061874E+03  0.00000000000E+00 0.  1.
         21   -1    0    0  501  502 -0.00000000000E+00 -0.00000000000E+00 -0.25010588805E+01  0.25010588805E+01  0.00000000000E+00 0.  1.
         21    1    1    2  503  502  0.19336181981E+02 -0.86599188777E+01  0.47228200784E+02  0.51762776953E+02  0.00000000000E+00 0.  1.
         21    1    1    2  504  503 -0.19336181981E+02  0.86599188777E+01  0.47981135907E+03  0.48027890067E+03  0.00000000000E+00 0.  1.
<mgrwt>
<rscale>  2 0.21186839E+02</rscale>
<asrwt>0</asrwt>
<pdfrwt beam="1">  1       21 0.81467699E-01 0.21186839E+02</pdfrwt>
<pdfrwt beam="2">  1       21 0.38477871E-03 0.21186839E+02</pdfrwt>
<totfact> 0.17352012E+07</totfact>
</mgrwt>
</event>
<event>
 4    1  0.9374408E+003  0.2529018E+02  0.7546771E-02  0.1656869E+00
         21   -1    0    0  502  501  0.00000000000E+00  0.00000000000E+00  0.80403467491E+00  0.80403467491E+00  0.00000000000E+00 0.  1.
         21   -1    0    0  503  502 -0.00000000000E+00 -0.00000000000E+00 -0.11814005863E+04  0.11814005863E+04  0.00000000000E+00 0.  1.
         21    1    1    2  503  504 -0.25120184775E+02  0.29273372253E+01 -0.92814009002E+03  0.92848458236E+03  0.00000000000E+00 0.  1.
         21    1    1    2  504  501  0.25120184775E+02 -0.29273372253E+01 -0.25245646165E+03  0.25372003866E+03  0.00000000000E+00 0.  1.
<mgrwt>
<rscale>  2 0.25290176E+02</rscale>
<asrwt>0</asrwt>
<pdfrwt beam="1">  1       21 0.12369761E-03 0.25290176E+02</pdfrwt>
<pdfrwt beam="2">  1       21 0.18175399E+00 0.25290176E+02</pdfrwt>
<totfact> 0.14817519E+07</totfact>
</mgrwt>
</event>
<event>
 4    1  0.9374408E+003  0.2309225E+02  0.7546771E-02  0.1690019E+00
         21   -1    0    0  502  501  0.00000000000E+00  0.00000000000E+00  0.13988664921E+02  0.13988664921E+02  0.00000000000E+00 0. -1.
         21   -1    0    0  504  502 -0.00000000000E+00 -0.00000000000E+00 -0.76382296288E+02  0.76382296288E+02  0.00000000000E+00 0. -1.
         21    1    1    2  503  501 -0.43948374731E+01  0.22670183902E+02  0.78377436942E+00  0.23105543422E+02  0.00000000000E+00 0.  1.
         21    1    1    2  504  503  0.43948374731E+01 -0.22670183902E+02 -0.63177405737E+02  0.67265417788E+02  0.00000000000E+00 0.  1.
<mgrwt>
<rscale>  2 0.23092246E+02</rscale>
<asrwt>0</asrwt>
<pdfrwt beam="1">  1       21 0.21521024E-02 0.23092246E+02</pdfrwt>
<pdfrwt beam="2">  1       21 0.11751122E-01 0.23092246E+02</pdfrwt>
<totfact> 0.47682742E+07</totfact>
</mgrwt>
</event>
<event>
 4    1  0.9374408E+003  0.3478989E+02  0.7546771E-02  0.1550474E+00
         21   -1    0    0  504  501  0.00000000000E+00  0.00000000000E+00  0.19682322007E+02  0.19682322007E+02  0.00000000000E+00 0.  1.
         21   -1    0    0  501  502 -0.00000000000E+00 -0.00000000000E+00 -0.69900398191E+02  0.69900398191E+02  0.00000000000E+00 0.  1.
         21    1    1    2  503  502  0.34078346564E+02 -0.70002186124E+01 -0.95755199133E+01  0.36083616044E+02  0.00000000000E+00 0.  1.
         21    1    1    2  504  503 -0.34078346564E+02  0.70002186124E+01 -0.40642556270E+02  0.53499104155E+02  0.00000000000E+00 0.  1.
<mgrwt>
<rscale>  2 0.34789895E+02</rscale>
<asrwt>0</asrwt>
<pdfrwt beam="1">  1       21 0.30280496E-02 0.34789895E+02</pdfrwt>
<pdfrwt beam="2">  1       21 0.10753907E-01 0.34789895E+02</pdfrwt>
<totfact> 0.35584443E+07</totfact>
</mgrwt>
</event>
<event>
 4    1  0.9374408E+003  0.4031488E+02  0.7546771E-02  0.1505907E+00
         21   -1    0    0  504  501  0.00000000000E+00  0.00000000000E+00  0.54823400538E+03  0.54823400538E+03  0.00000000000E+00 0. -1.
         21   -1    0    0  501  502 -0.00000000000E+00 -0.00000000000E+00 -0.43356203724E+01  0.43356203724E+01  0.00000000000E+00 0. -1.
         21    1    1    2  503  502  0.35659725857E+02 -0.18806208322E+02  0.42731476543E+03  0.42921229977E+03  0.00000000000E+00 0.  1.
         21    1    1    2  504  503 -0.35659725857E+02  0.18806208322E+02  0.11658361958E+03  0.12335732598E+03  0.00000000000E+00 0.  1.
<mgrwt>
<rscale>  2 0.40314880E+02</rscale>
<asrwt>0</asrwt>
<pdfrwt beam="1">  1       21 0.84343638E-01 0.40314880E+02</pdfrwt>
<pdfrwt beam="2">  1       21 0.66701895E-03 0.40314880E+02</pdfrwt>
<totfact> 0.78350543E+06</totfact>
</mgrwt>
</event>
<event>
 4    1  0.9374408E+003  0.2029685E+02  0.7546771E-02  0.1739489E+00
         21   -1    0    0  502  501  0.00000000000E+00  0.00000000000E+00  0.97563588197E+02  0.97563588197E+02  0.00000000000E+00 0.  1.
         21   -1    0    0  504  502 -0.00000000000E+00 -0.00000000000E+00 -0.28517104449E+02  0.28517104449E+02  0.00000000000E+00 0.  1.
         21    1    1    2  503  501  0.31630805188E+01  0.20048862954E+02  0.92709552075E+02  0.94905337206E+02  0.00000000000E+00 0. -1.
         21    1    1    2  504  503 -0.31630805188E+01 -0.20048862954E+02 -0.23663068328E+02  0.31175355440E+02  0.00000000000E+00 0. -1.
<mgrwt>
<rscale>  2 0.20296847E+02</rscale>
<asrwt>0</asrwt>
<pdfrwt beam="1">  1       21 0.15009783E-01 0.20296847E+02</pdfrwt>
<pdfrwt beam="2">  1       21 0.43872469E-02 0.20296847E+02</pdfrwt>
<totfact> 0.10129165E+07</totfact>
</mgrwt>
</event>
<event>
 4    1  0.9374408E+003  0.2694553E+02  0.7546771E-02  0.1634534E+00
         21   -1    0    0  504  501  0.00000000000E+00  0.00000000000E+00  0.79945973935E+01  0.79945973935E+01  0.00000000000E+00 0. -1.
         21   -1    0    0  501  502 -0.00000000000E+00 -0.00000000000E+00 -0.14571476493E+03  0.14571476493E+03  0.00000000000E+00 0. -1.
         21    1    1    2  503  502  0.26674406111E+02 -0.38128516098E+01 -0.21687708053E+02  0.34589282436E+02  0.00000000000E+00 0. -1.
         21    1    1    2  504  503 -0.26674406111E+02  0.38128516098E+01 -0.11603245948E+03  0.11912007989E+03  0.00000000000E+00 0. -1.
<mgrwt>
<rscale>  2 0.26945534E+02</rscale>
<asrwt>0</asrwt>
<pdfrwt beam="1">  1       21 0.12299380E-02 0.26945534E+02</pdfrwt>
<pdfrwt beam="2">  1       21 0.22417657E-01 0.26945534E+02</pdfrwt>
<totfact> 0.38266462E+07</totfact>
</mgrwt>
</event>
<event>
 4    1  0.9374408E+003  0.2931209E+02  0.7546771E-02  0.1605819E+00
         21   -1    0    0  503  501  0.00000000000E+00  0.00000000000E+00  0.80361077313E+02  0.80361077313E+02  0.00000000000E+00 0.  1.
         21   -1    0    0  501  502 -0.00000000000E+00 -0.00000000000E+00 -0.16316363155E+02  0.16316363155E+02  0.00000000000E+00 0.  1.
         21    1    1    2  503  504 -0.28724358841E+02 -0.58403475192E+01  0.60403560342E+02  0.67140066667E+02  0.00000000000E+00 0. -1.
         21    1    1    2  504  502  0.28724358841E+02  0.58403475192E+01  0.36411538161E+01  0.29537373801E+02  0.00000000000E+00 0. -1.
<mgrwt>
<rscale>  2 0.29312087E+02</rscale>
<asrwt>0</asrwt>
<pdfrwt beam="1">  1       21 0.12363242E-01 0.29312087E+02</pdfrwt>
<pdfrwt beam="2">  1       21 0.25102098E-02 0.29312087E+02</pdfrwt>
<totfact> 0.36455055E+07</totfact>
</mgrwt>
</event>
<event>
 4    1  0.9374408E+003  0.2159851E+02  0.7546771E-02  0.1715289E+00
         21   -1    0    0  504  501  0.00000000000E+00  0.00000000000E+00  0.22908546254E+01  0.22908546254E+01  0.00000000000E+00 0.  1.
         21   -1    0    0  501  502 -0.00000000000E+00 -0.00000000000E+00 -0.41696630732E+03  0.41696630732E+03  0.00000000000E+00 0.  1.
         21    1    1    2  503  502 -0.15668609473E+02  0.14865742203E+02 -0.35728150496E+03  0.35793375002E+03  0.00000000000E+00 0. -1.
         21    1    1    2  504  503  0.15668609473E+02 -0.14865742203E+02 -0.57393947729E+02  0.61323411924E+02  0.00000000000E+00 0. -1.
<mgrwt>
<rscale>  2 0.21598510E+02</rscale>
<asrwt>0</asrwt>
<pdfrwt beam="1">  1       21 0.35243931E-03 0.21598510E+02</pdfrwt>
<pdfrwt beam="2">  1       21 0.64148637E-01 0.21598510E+02</pdfrwt>
<totfact> 0.32366387E+07</totfact>
</mgrwt>
</event>
<event>
 4    1  0.9374408E+003  0.2585226E+02  0.7546771E-02  0.1649054E+00
         21   -1    0    0  504  501  0.00000000000E+00  0.00000000000E+00  0.13748596830E+03  0.13748596830E+03  0.00000000000E+00 0.  1.
         21   -1    0    0  501  502 -0.00000000000E+00 -0.00000000000E+00 -0.50420977970E+01  0.50420977970E+01  0.00000000000E+00 0.  1.
         21    1    1    2  503  502 -0.22187802208E+02 -0.13268036204E+02  0.79722325760E+02  0.83809239205E+02  0.00000000000E+00 0. -1.
         21    1    1    2  504  503  0.22187802208E+02  0.13268036204E+02  0.52721544743E+02  0.58718826892E+02  0.00000000000E+00 0. -1.
<mgrwt>
<rscale>  2 0.25852260E+02</rscale>
<asrwt>0</asrwt>
<pdfrwt beam="1">  1       21 0.21151685E-01 0.25852260E+02</pdfrwt>
<pdfrwt beam="2">  1       21 0.77570746E-03 0.25852260E+02</pdfrwt>
<totfact> 0.84179764E+07</totfact>
</mgrwt>
</event>
<event>
 4    1  0.9374408E+003  0.5738150E+02  0.7546771E-02  0.1409161E+00
         21   -1    0    0  503  501  0.00000000000E+00  0.00000000000E+00  0.56846640073E+02  0.56846640073E+02  0.00000000000E+00 0. -1.
         21   -1    0    0  501  502 -0.00000000000E+00 -0.00000000000E+00 -0.18273365873E+03  0.18273365873E+03  0.00000000000E+00 0. -1.
         21    1    1    2  503  504 -0.11827195844E+02  0.56149387781E+02 -0.16194471269E+03  0.17181014602E+03  0.00000000000E+00 0.  1.
         21    1    1    2  504  502  0.11827195844E+02 -0.56149387781E+02  0.36057694026E+02  0.67770152783E+02  0.00000000000E+00 0.  1.
<mgrwt>
<rscale>  2 0.57381498E+02</rscale>
<asrwt>0</asrwt>
<pdfrwt beam="1">  1       21 0.87456368E-02 0.57381498E+02</pdfrwt>
<pdfrwt beam="2">  1       21 0.28112871E-01 0.57381498E+02</pdfrwt>
<totfact> 0.12136653E+06</totfact>
</mgrwt>
</event>
<event>
 4    1  0.9374408E+003  0.2837695E+02  0.7546771E-02  0.1616755E+00
         21   -1    0    0  502  501  0.00000000000E+00  0.00000000000E+00  0.88069009899E+02  0.88069009899E+02  0.00000000000E+00 0. -1.
         21   -1    0    0  504  502 -0.00000000000E+00 -0.00000000000E+00 -0.10922459809E+02  0.10922459809E+02  0.00000000000E+00 0. -1.
         21    1    1    2  503  501  0.14364768192E+02 -0.24472535549E+02  0.58548924850E+02  0.65063262772E+02  0.00000000000E+00 0.  1.
         21    1    1    2  504  503 -0.14364768192E+02  0.24472535549E+02  0.18597625240E+02  0.33928206937E+02  0.00000000000E+00 0.  1.
<mgrwt>
<rscale>  2 0.28376955E+02</rscale>
<asrwt>0</asrwt>
<pdfrwt beam="1">  1       21 0.13549078E-01 0.28376955E+02</pdfrwt>
<pdfrwt beam="2">  1       21 0.16803785E-02 0.28376955E+02</pdfrwt>
<totfact> 0.57658878E+07</totfact>
</mgrwt>
</event>
<event>
 4    1  0.9374408E+003  0.2514316E+02  0.7546771E-02  0.1658954E+00
         21   -1    0    0  504  501  0.00000000000E+00  0.00000000000E+00  0.48607782202E+02  0.48607782202E+02  0.00000000000E+00 0. -1.
         21   -1    0    0  501  502 -0.00000000000E+00 -0.00000000000E+00 -0.21832340231E+02  0.21832340231E+02  0.00000000000E+00 0. -1.
         21    1    1    2  503  502 -0.22828582213E+02  0.10537289737E+02  0.35782019724E+02  0.43732500231E+02  0.00000000000E+00 0. -1.
         21    1    1    2  504  503  0.22828582213E+02 -0.10537289737E+02 -0.90065777537E+01  0.26707622202E+02  0.00000000000E+00 0. -1.
<mgrwt>
<rscale>  2 0.25143163E+02</rscale>
<asrwt>0</asrwt>
<pdfrwt beam="1">  1       21 0.74781203E-02 0.25143163E+02</pdfrwt>
<pdfrwt beam="2">  1       21 0.33588216E-02 0.25143163E+02</pdfrwt>
<totfact> 0.51444509E+07</totfact>
</mgrwt>
</event>
<event>
 4    1  0.9374408E+003  0.2180648E+02  0.7546771E-02  0.1711620E+00
         21   -1    0    0  503  501  0.00000000000E+00  0.00000000000E+00  0.11433986678E+03  0.11433986678E+03  0.00000000000E+00 0. -1.
         21   -1    0    0  501  502 -0.00000000000E+00 -0.00000000000E+00 -0.78321763662E+01  0.78321763662E+01  0.00000000000E+00 0. -1.
         21    1    1    2  503  504  0.93893869830E+01  0.19681516471E+02  0.11419767117E+02  0.24615721795E+02  0.00000000000E+00 0. -1.
         21    1    1    2  504  502 -0.93893869830E+01 -0.19681516471E+02  0.95087923293E+02  0.97556321347E+02  0.00000000000E+00 0. -1.
<mgrwt>
<rscale>  2 0.21806482E+02</rscale>
<asrwt>0</asrwt>
<pdfrwt beam="1">  1       21 0.17590748E-01 0.21806482E+02</pdfrwt>
<pdfrwt beam="2">  1       21 0.12049503E-02 0.21806482E+02</pdfrwt>
<totfact> 0.57317741E+07</totfact>
</mgrwt>
</event>
<event>
 4    1  0.9374408E+003  0.2161391E+02  0.7546771E-02  0.1715016E+00
         21   -1    0    0  504  501  0.00000000000E+00  0.00000000000E+00  0.33770147056E+03  0.33770147056E+03  0.00000000000E+00 0.  1.
         21   -1    0    0  501  502 -0.00000000000E+00 -0.00000000000E+00 -0.13874617258E+01  0.13874617258E+01  0.00000000000E+00 0.  1.
         21    1    1    2  503  502 -0.12644583345E+02  0.17529282219E+02  0.17738035723E+03  0.17869233995E+03  0.00000000000E+00 0.  1.
         21    1    1    2  504  503  0.12644583345E+02 -0.17529282219E+02  0.15893365160E+03  0.16039659234E+03  0.00000000000E+00 0.  1.
<mgrwt>
<rscale>  2 0.21613913E+02</rscale>
<asrwt>0</asrwt>
<pdfrwt beam="1">  1       21 0.51954007E-01 0.21613913E+02</pdfrwt>
<pdfrwt beam="2">  1       21 0.21345592E-03 0.21613913E+02</pdfrwt>
<totfact> 0.10177399E+08</totfact>
</mgrwt>
</event>
<event>
 4    1  0.9374408E+003  0.2737757E+02  0.7546771E-02  0.1629027E+00
         21   -1    0    0  504  501  0.00000000000E+00  0.00000000000E+00  0.49670652032E+00  0.49670652032E+00  0.00000000000E+00 0.  1.
         21   -1    0    0  501  502 -0.00000000000E+00 -0.00000000000E+00 -0.20629714754E+04  0.20629714754E+04  0.00000000000E+00 0.  1.
         21    1    1    2  503  502 -0.11382685754E+02 -0.24899117750E+02 -0.15658801791E+04  0.15661194931E+04  0.00000000000E+00 0. -1.
         21    1    1    2  504  503  0.11382685754E+02  0.24899117750E+02 -0.49659458976E+03  0.49734868873E+03  0.00000000000E+00 0. -1.
<mgrwt>
<rscale>  2 0.27377575E+02</rscale>
<asrwt>0</asrwt>
<pdfrwt beam="1">  1       21 0.76414140E-04 0.27377575E+02</pdfrwt>
<pdfrwt beam="2">  1       21 0.31738956E+00 0.27377575E+02</pdfrwt>
<totfact> 0.58604035E+06</totfact>
</mgrwt>
</event>
<event>
 4    1  0.9374408E+003  0.2010992E+02  0.7546771E-02  0.1743151E+00
         21   -1    0    0  502  501  0.00000000000E+00  0.00000000000E+00  0.48729432304E+01  0.48729432304E+01  0.00000000000E+00 0.  1.
         21   -1    0    0  504  502 -0.00000000000E+00 -0.00000000000E+00 -0.18299425630E+03  0.18299425630E+03  0.00000000000E+00 0.  1.
         21    1    1    2  503  501 -0.17742134858E+02  0.94670771992E+01 -0.19620612124E+02  0.28095859484E+02  0.00000000000E+00 0. -1.
         21    1    1    2  504  503  0.17742134858E+02 -0.94670771992E+01 -0.15850070095E+03  0.15977134005E+03  0.00000000000E+00 0. -1.
<mgrwt>
<rscale>  2 0.20109920E+02</rscale>
<asrwt>0</asrwt>
<pdfrwt beam="1">  1       21 0.74968354E-03 0.20109920E+02</pdfrwt>
<pdfrwt beam="2">  1       21 0.28152964E-01 0.20109920E+02</pdfrwt>
<totfact> 0.49950938E+07</totfact>
</mgrwt>
</event>
<event>
 4    1  0.9374408E+003  0.2549018E+02  0.7546771E-02  0.1654059E+00
         21   -1    0    0  502  501  0.00000000000E+00  0.00000000000E+00  0.70705923812E+02  0.70705923812E+02  0.00000000000E+00 0. -1.
         21   -1    0    0  503  502 -0.00000000000E+00 -0.00000000000E+00 -0.12298435171E+02  0.12298435171E+02  0.00000000000E+00 0. -1.
         21    1    1    2  503  504 -0.25221207570E+02  0.36932546807E+01  0.50070475563E+02  0.56185424840E+02  0.00000000000E+00 0.  1.
         21    1    1    2  504  501  0.25221207570E+02 -0.36932546807E+01  0.83370130784E+01  0.26818934142E+02  0.00000000000E+00 0.  1.
<mgrwt>
<rscale>  2 0.25490183E+02</rscale>
<asrwt>0</asrwt>
<pdfrwt beam="1">  1       21 0.10877834E-01 0.25490183E+02</pdfrwt>
<pdfrwt beam="2">  1       21 0.18920670E-02 0.25490183E+02</pdfrwt>
<totfact> 0.67806466E+07</totfact>
</mgrwt>
</event>
<event>
 4    1  0.9374408E+003  0.2931819E+02  0.7546771E-02  0.1605750E+00
         21   -1    0    0  503  501  0.00000000000E+00  0.00000000000E+00  0.11295522338E+04  0.11295522338E+04  0.00000000000E+00 0.  1.
         21   -1    0    0  501  502 -0.00000000000E+00 -0.00000000000E+00 -0.14702971130E+01  0.14702971130E+01  0.00000000000E+00 0.  1.
         21    1    1    2  503  504  0.26709544005E+02 -0.12089514121E+02  0.95683220616E+03  0.95728126840E+03  0.00000000000E+00 0.  1.
         21    1    1    2  504  502 -0.26709544005E+02  0.12089514121E+02  0.17124973054E+03  0.17374126252E+03  0.00000000000E+00 0.  1.
<mgrwt>
<rscale>  2 0.29318187E+02</rscale>
<asrwt>0</asrwt>
<pdfrwt beam="1">  1       21 0.17377657E+00 0.29318187E+02</pdfrwt>
<pdfrwt beam="2">  1       21 0.22620046E-03 0.29318187E+02</pdfrwt>
<totfact> 0.70468804E+06</totfact>
</mgrwt>
</event>
<event>
 4    1  0.9374408E+003  0.2012903E+02  0.7546771E-02  0.1742774E+00
         21   -1    0    0  502  501  0.00000000000E+00  0.00000000000E+00  0.10641794979E+02  0.10641794979E+02  0.00000000000E+00 0. -1.
         21   -1    0    0  503  502 -0.00000000000E+00 -0.00000000000E+00 -0.51763374419E+02  0.51763374419E+02  0.00000000000E+00 0. -1.
         21    1    1    2  503  504 -0.18616534091E+02  0.76552292974E+01 -0.36606828578E+02  0.41776043083E+02  0.00000000000E+00 0.  1.
         21    1    1    2  504  501  0.18616534091E+02 -0.76552292974E+01 -0.45147508627E+01  0.20629126315E+02  0.00000000000E+00 0.  1.
<mgrwt>
<rscale>  2 0.20129031E+02</rscale>
<asrwt>0</asrwt>
<pdfrwt beam="1">  1       21 0.16371992E-02 0.20129031E+02</pdfrwt>
<pdfrwt beam="2">  1       21 0.79635961E-02 0.20129031E+02</pdfrwt>
<totfact> 0.13218837E+08</totfact>
</mgrwt>
</event>
<event>
 4    1  0.9374408E+003  0.2585215E+02  0.7546771E-02  0.1649055E+00
         21   -1    0    0  503  501  0.00000000000E+00  0.00000000000E+00  0.50632541395E+01  0.50632541395E+01  0.00000000000E+00 0.  1.
         21   -1    0    0  501  502 -0.00000000000E+00 -0.00000000000E+00 -0.18038736362E+03  0.18038736362E+03  0.00000000000E+00 0.  1.
         21    1    1    2  503  504  0.25406427246E+02 -0.47798735086E+01 -0.13568792305E+03  0.13812873053E+03  0.00000000000E+00 0. -1.
         21    1    1    2  504  502 -0.25406427246E+02  0.47798735086E+01 -0.39636186427E+02  0.47321887226E+02  0.00000000000E+00 0. -1.
<mgrwt>
<rscale>  2 0.25852151E+02</rscale>
<asrwt>0</asrwt>
<pdfrwt beam="1">  1       21 0.77896235E-03 0.25852151E+02</pdfrwt>
<pdfrwt beam="2">  1       21 0.27751896E-01 0.25852151E+02</pdfrwt>
<totfact> 0.51496243E+07</totfact>
</mgrwt>
</event>
<event>
 4    1  0.9374408E+003  0.3150444E+02  0.7546771E-02  0.1582031E+00
         21   -1    0    0  504  501  0.00000000000E+00  0.00000000000E+00  0.64089127575E+03  0.64089127575E+03  0.00000000000E+00 0. -1.
         21   -1    0    0  501  502 -0.00000000000E+00 -0.00000000000E+00 -0.31834831929E+01  0.31834831929E+01  0.00000000000E+00 0. -1.
         21    1    1    2  503  502 -0.54142735038E+01  0.31035713765E+02  0.54962897381E+03  0.55053114238E+03  0.00000000000E+00 0.  1.
         21    1    1    2  504  503  0.54142735038E+01 -0.31035713765E+02  0.88078818751E+02  0.93543616559E+02  0.00000000000E+00 0.  1.
<mgrwt>
<rscale>  2 0.31504442E+02</rscale>
<asrwt>0</asrwt>
<pdfrwt beam="1">  1       21 0.98598556E-01 0.31504442E+02</pdfrwt>
<pdfrwt beam="2">  1       21 0.48976715E-03 0.31504442E+02</pdfrwt>
<totfact> 0.85956289E+06</totfact>
</mgrwt>
</event>
<event>
 4    1  0.9374408E+003  0.2013128E+02  0.7546771E-02  0.1742730E+00
         21   -1    0    0  504  501  0.00000000000E+00  0.00000000000E+00  0.12507814094E+02  0.12507814094E+02  0.00000000000E+00 0. -1.
         21   -1    0    0  501  502 -0.00000000000E+00 -0.00000000000E+00 -0.39792152957E+02  0.39792152957E+02  0.00000000000E+00 0. -1.
         21    1    1    2  503  502  0.18924653891E+02 -0.68648233240E+01 -0.24912135161E+02  0.32029405278E+02  0.00000000000E+00 0. -1.
         21    1    1    2  504  503 -0.18924653891E+02  0.68648233240E+01 -0.23722037017E+01  0.20270561772E+02  0.00000000000E+00 0. -1.
<mgrwt>
<rscale>  2 0.20131277E+02</rscale>
<asrwt>0</asrwt>
<pdfrwt beam="1">  1       21 0.19242791E-02 0.20131277E+02</pdfrwt>
<pdfrwt beam="2">  1       21 0.61218697E-02 0.20131277E+02</pdfrwt>
<totfact> 0.15793337E+08</totfact>
</mgrwt>
</event>
<event>
 4    1  0.9374408E+003  0.2538982E+02  0.7546771E-02  0.1655465E+00
         21   -1    0    0  504  501  0.00000000000E+00  0.00000000000E+00  0.98090880397E+02  0.98090880397E+02  0.00000000000E+00 0.  1.
         21   -1    0    0  501  502 -0.00000000000E+00 -0.00000000000E+00 -0.11606299789E+02  0.11606299789E+02  0.00000000000E+00 0.  1.
         21    1    1    2  503  502 -0.14875292348E+02 -0.20575919529E+02  0.71185491948E+01  0.26368855295E+02  0.00000000000E+00 0.  1.
         21    1    1    2  504  503  0.14875292348E+02  0.20575919529E+02  0.79366031413E+02  0.83328324891E+02  0.00000000000E+00 0.  1.
<mgrwt>
<rscale>  2 0.25389817E+02</rscale>
<asrwt>0</asrwt>
<pdfrwt beam="1">  1       21 0.15090904E-01 0.25389817E+02</pdfrwt>
<pdfrwt beam="2">  1       21 0.17855847E-02 0.25389817E+02</pdfrwt>
<totfact> 0.42584754E+07</totfact>
</mgrwt>
</event>
<event>
 4    1  0.9374408E+003  0.3422853E+02  0.7546771E-02  0.1555560E+00
         21   -1    0    0  502  501  0.00000000000E+00  0.00000000000E+00  0.12786225141E+03  0.12786225141E+03  0.00000000000E+00 0.  1.
         21   -1    0    0  503  502 -0.00000000000E+00 -0.00000000000E+00 -0.18941812399E+02  0.18941812399E+02  0.00000000000E+00 0.  1.
         21    1    1    2  503  504  0.59066146952E+01  0.33715047723E+02  0.17199938365E+01  0.34271721855E+02  0.00000000000E+00 0.  1.
         21    1    1    2  504  501 -0.59066146952E+01 -0.33715047723E+02  0.10720044518E+03  0.11253234196E+03  0.00000000000E+00 0.  1.
<mgrwt>
<rscale>  2 0.34228534E+02</rscale>
<asrwt>0</asrwt>
<pdfrwt beam="1">  1       21 0.19671115E-01 0.34228534E+02</pdfrwt>
<pdfrwt beam="2">  1       21 0.29141251E-02 0.34228534E+02</pdfrwt>
<totfact> 0.13283222E+07</totfact>
</mgrwt>
</event>
<event>
 4    1  0.9374408E+003  0.3353409E+02  0.7546771E-02  0.1562017E+00
         21   -1    0    0  504  501  0.00000000000E+00  0.00000000000E+00  0.62470621826E+01  0.62470621826E+01  0.00000000000E+00 0.  1.
         21   -1    0    0  501  502 -0.00000000000E+00 -0.00000000000E+00 -0.29479694071E+03  0.29479694071E+03  0.00000000000E+00 0.  1.
         21    1    1    2  503  502  0.30223525037E+02 -0.14528367512E+02 -0.23820062098E+03  0.24054951832E+03  0.00000000000E+00 0.  1.
         21    1    1    2  504  503 -0.30223525037E+02  0.14528367512E+02 -0.50349257547E+02  0.60494484573E+02  0.00000000000E+00 0.  1.
<mgrwt>
<rscale>  2 0.33534086E+02</rscale>
<asrwt>0</asrwt>
<pdfrwt beam="1">  1       21 0.96108637E-03 0.33534086E+02</pdfrwt>
<pdfrwt beam="2">  1       21 0.45353381E-01 0.33534086E+02</pdfrwt>
<totfact> 0.15689681E+07</totfact>
</mgrwt>
</event>
<event>
 4    1  0.9374408E+003  0.2423109E+02  0.7546771E-02  0.1672298E+00
         21   -1    0    0  504  501  0.00000000000E+00  0.00000000000E+00  0.10508121752E+02  0.10508121752E+02  0.00000000000E+00 0. -1.
         21   -1    0    0  501  502 -0.00000000000E+00 -0.00000000000E+00 -0.79789545968E+02  0.79789545968E+02  0.00000000000E+00 0. -1.
         21    1    1    2  503  502  0.17546515362E+02  0.16711246348E+02 -0.59357987130E+02  0.64113310568E+02  0.00000000000E+00 0.  1.
         21    1    1    2  504  503 -0.17546515362E+02 -0.16711246348E+02 -0.99234370861E+01  0.26184357152E+02  0.00000000000E+00 0.  1.
<mgrwt>
<rscale>  2 0.24231095E+02</rscale>
<asrwt>0</asrwt>
<pdfrwt beam="1">  1       21 0.16166341E-02 0.24231095E+02</pdfrwt>
<pdfrwt beam="2">  1       21 0.12275315E-01 0.24231095E+02</pdfrwt>
<totfact> 0.69575450E+07</totfact>
</mgrwt>
</event>
<event>
 4    1  0.9374408E+003  0.3107519E+02  0.7546771E-02  0.1586499E+00
         21   -1    0    0  502  501  0.00000000000E+00  0.00000000000E+00  0.34008568878E+01  0.34008568878E+01  0.00000000000E+00 0. -1.
         21   -1    0    0  504  502 -0.00000000000E+00 -0.00000000000E+00 -0.89309827688E+03  0.89309827688E+03  0.00000000000E+00 0. -1.
         21    1    1    2  503  501  0.12481275558E+02 -0.28458484790E+02 -0.81504525581E+03  0.81563744189E+03  0.00000000000E+00 0. -1.
         21    1    1    2  504  503 -0.12481275558E+02  0.28458484790E+02 -0.74652164182E+02  0.80861691877E+02  0.00000000000E+00 0. -1.
<mgrwt>
<rscale>  2 0.31075193E+02</rscale>
<asrwt>0</asrwt>
<pdfrwt beam="1">  1       21 0.52320806E-03 0.31075193E+02</pdfrwt>
<pdfrwt beam="2">  1       21 0.13739992E+00 0.31075193E+02</pdfrwt>
<totfact> 0.36419385E+06</totfact>
</mgrwt>
</event>
<event>
 4    1  0.9374408E+003  0.2040794E+02  0.7546771E-02  0.1737335E+00
         21   -1    0    0  502  501  0.00000000000E+00  0.00000000000E+00  0.18936959677E+03  0.18936959677E+03  0.00000000000E+00 0. -1.
         21   -1    0    0  504  502 -0.00000000000E+00 -0.00000000000E+00 -0.26183682351E+01  0.26183682351E+01  0.00000000000E+00 0. -1.
         21    1    1    2  503  501 -0.19388608310E+02 -0.63691364177E+01  0.13177829182E+03  0.13334917408E+03  0.00000000000E+00 0. -1.
         21    1    1    2  504  503  0.19388608310E+02  0.63691364177E+01  0.54972936708E+02  0.58638790926E+02  0.00000000000E+00 0. -1.
<mgrwt>
<rscale>  2 0.20407940E+02</rscale>
<asrwt>0</asrwt>
<pdfrwt beam="1">  1       21 0.29133773E-01 0.20407940E+02</pdfrwt>
<pdfrwt beam="2">  1       21 0.40282603E-03 0.20407940E+02</pdfrwt>
<totfact> 0.11765311E+08</totfact>
</mgrwt>
</event>
<event>
 4    1  0.9374408E+003  0.2223256E+02  0.7546771E-02  0.1704261E+00
         21   -1    0    0  502  501  0.00000000000E+00  0.00000000000E+00  0.16580567940E+03  0.16580567940E+03  0.00000000000E+00 0. -1.
         21   -1    0    0  503  502 -0.00000000000E+00 -0.00000000000E+00 -0.43209618591E+01  0.43209618591E+01  0.00000000000E+00 0. -1.
         21    1    1    2  503  504  0.69612729909E+01  0.21114629694E+02  0.12810965674E+03  0.13002450176E+03  0.00000000000E+00 0. -1.
         21    1    1    2  504  501 -0.69612729909E+01 -0.21114629694E+02  0.33375060807E+02  0.40102139502E+02  0.00000000000E+00 0. -1.
<mgrwt>
<rscale>  2 0.22232564E+02</rscale>
<asrwt>0</asrwt>
<pdfrwt beam="1">  1       21 0.25508561E-01 0.22232564E+02</pdfrwt>
<pdfrwt beam="2">  1       21 0.66476349E-03 0.22232564E+02</pdfrwt>
<totfact> 0.73119006E+07</totfact>
</mgrwt>
</event>
<event>
 4    1  0.9374408E+003  0.2562078E+02  0.7546771E-02  0.1652242E+00
         21   -1    0    0  504  501  0.00000000000E+00  0.00000000000E+00  0.19954364786E+01  0.19954364786E+01  0.00000000000E+00 0.  1.
         21   -1    0    0  501  502 -0.00000000000E+00 -0.00000000000E+00 -0.53515251971E+03  0.53515251971E+03  0.00000000000E+00 0.  1.
         21    1    1    2  503  502 -0.20186179973E+02  0.15777916657E+02 -0.99869723571E+02  0.10310376425E+03  0.00000000000E+00 0. -1.
         21    1    1    2  504  503  0.20186179973E+02 -0.15777916657E+02 -0.43328735966E+03  0.43404419194E+03  0.00000000000E+00 0. -1.
<mgrwt>
<rscale>  2 0.25620783E+02</rscale>
<asrwt>0</asrwt>
<pdfrwt beam="1">  1       21 0.30699005E-03 0.25620783E+02</pdfrwt>
<pdfrwt beam="2">  1       21 0.82331203E-01 0.25620783E+02</pdfrwt>
<totfact> 0.24491910E+07</totfact>
</mgrwt>
</event>
<event>
 4    1  0.9374408E+003  0.2047251E+02  0.7546771E-02  0.1736092E+00
         21   -1    0    0  503  501  0.00000000000E+00  0.00000000000E+00  0.56533935886E+01  0.56533935886E+01  0.00000000000E+00 0. -1.
         21   -1    0    0  501  502 -0.00000000000E+00 -0.00000000000E+00 -0.90045742290E+02  0.90045742290E+02  0.00000000000E+00 0. -1.
         21    1    1    2  503  504  0.19525739100E+02 -0.61537825759E+01 -0.22083517014E+02  0.30113207253E+02  0.00000000000E+00 0. -1.
         21    1    1    2  504  502 -0.19525739100E+02  0.61537825759E+01 -0.62308831687E+02  0.65585928625E+02  0.00000000000E+00 0. -1.
<mgrwt>
<rscale>  2 0.20472507E+02</rscale>
<asrwt>0</asrwt>
<pdfrwt beam="1">  1       21 0.86975290E-03 0.20472507E+02</pdfrwt>
<pdfrwt beam="2">  1       21 0.13853190E-01 0.20472507E+02</pdfrwt>
<totfact> 0.13780192E+08</totfact>
</mgrwt>
</event>
<event>
 4    1  0.9374408E+003  0.3155854E+02  0.7546771E-02  0.1581474E+00
         21   -1    0    0  502  501  0.00000000000E+00  0.00000000000E+00  0.47006846052E+02  0.47006846052E+02  0.00000000000E+00 0. -1.
         21   -1    0    0  503  502 -0.00000000000E+00 -0.00000000000E+00 -0.24790371412E+02  0.24790371412E+02  0.00000000000E+00 0. -1.
         21    1    1    2  503  504 -0.28980779997E+02  0.12492238614E+02  0.24794374472E+02  0.40133560025E+02  0.00000000000E+00 0. -1.
         21    1    1    2  504  501  0.28980779997E+02 -0.12492238614E+02 -0.25778998327E+01  0.31663657439E+02  0.00000000000E+00 0. -1.
<mgrwt>
<rscale>  2 0.31558543E+02</rscale>
<asrwt>0</asrwt>
<pdfrwt beam="1">  1       21 0.72318225E-02 0.31558543E+02</pdfrwt>
<pdfrwt beam="2">  1       21 0.38139033E-02 0.31558543E+02</pdfrwt>
<totfact> 0.46832145E+07</totfact>
</mgrwt>
</event>
<event>
 4    1  0.9374408E+003  0.3416575E+02  0.7546771E-02  0.1556136E+00
         21   -1    0    0  502  501  0.00000000000E+00  0.00000000000E+00  0.54811250136E+02  0.54811250136E+02  0.00000000000E+00 0.  1.
         21   -1    0    0  503  502 -0.00000000000E+00 -0.00000000000E+00 -0.43815676853E+02  0.43815676853E+02  0.00000000000E+00 0.  1.
         21    1    1    2  503  504  0.13987722887E+02 -0.31171176837E+02 -0.29855116814E+02  0.45372091167E+02  0.00000000000E+00 0.  1.
         21    1    1    2  504  501 -0.13987722887E+02  0.31171176837E+02  0.40850690098E+02  0.53254835822E+02  0.00000000000E+00 0.  1.
<mgrwt>
<rscale>  2 0.34165753E+02</rscale>
<asrwt>0</asrwt>
<pdfrwt beam="1">  1       21 0.84325001E-02 0.34165753E+02</pdfrwt>
<pdfrwt beam="2">  1       21 0.67408733E-02 0.34165753E+02</pdfrwt>
<totfact> 0.14704595E+07</totfact>
</mgrwt>
</event>
<event>
 4    1  0.9374408E+003  0.3609099E+02  0.7546771E-02  0.1539120E+00
         21   -1    0    0  502  501  0.00000000000E+00  0.00000000000E+00  0.10290655579E+03  0.10290655579E+03  0.00000000000E+00 0. -1.
         21   -1    0    0  504  502 -0.00000000000E+00 -0.00000000000E+00 -0.15588791825E+02  0.15588791825E+02  0.00000000000E+00 0. -1.
         21    1    1    2  503  501 -0.12368950914E+02  0.33905289019E+02  0.17967922715E+02  0.40316321966E+02  0.00000000000E+00 0. -1.
         21    1    1    2  504  503  0.12368950914E+02 -0.33905289019E+02  0.69349841252E+02  0.78179025652E+02  0.00000000000E+00 0. -1.
<mgrwt>
<rscale>  2 0.36090990E+02</rscale>
<asrwt>0</asrwt>
<pdfrwt beam="1">  1       21 0.15831777E-01 0.36090990E+02</pdfrwt>
<pdfrwt beam="2">  1       21 0.23982757E-02 0.36090990E+02</pdfrwt>
<totfact> 0.26657058E+07</totfact>
</mgrwt>
</event>
<event>
 4    1  0.9374408E+003  0.5139707E+02  0.7546771E-02  0.1437949E+00
         21   -1    0    0  502  501  0.00000000000E+00  0.00000000000E+00  0.90801205126E+01  0.90801205126E+01  0.00000000000E+00 0. -1.
         21   -1    0    0  503  502 -0.00000000000E+00 -0.00000000000E+00 -0.99182877331E+03  0.99182877331E+03  0.00000000000E+00 0. -1.
         21    1    1    2  503  504 -0.42332375801E+02 -0.29148390405E+02 -0.70672343291E+02  0.87385575528E+02  0.00000000000E+00 0.  1.
         21    1    1    2  504  501  0.42332375801E+02  0.29148390405E+02 -0.91207630951E+03  0.91352331829E+03  0.00000000000E+00 0.  1.
<mgrwt>
<rscale>  2 0.51397069E+02</rscale>
<asrwt>0</asrwt>
<pdfrwt beam="1">  1       21 0.13969414E-02 0.51397069E+02</pdfrwt>
<pdfrwt beam="2">  1       21 0.15258906E+00 0.51397069E+02</pdfrwt>
<totfact> 0.64700677E+05</totfact>
</mgrwt>
</event>
<event>
 4    1  0.9374408E+003  0.2717486E+02  0.7546771E-02  0.1631595E+00
         21   -1    0    0  502  501  0.00000000000E+00  0.00000000000E+00  0.10022244702E+01  0.10022244702E+01  0.00000000000E+00 0. -1.
         21   -1    0    0  503  502 -0.00000000000E+00 -0.00000000000E+00 -0.89144169170E+03  0.89144169170E+03  0.00000000000E+00 0. -1.
         21    1    1    2  503  504  0.93737495195E+01  0.25506976978E+02 -0.25938793522E+03  0.26080754206E+03  0.00000000000E+00 0.  1.
         21    1    1    2  504  501 -0.93737495195E+01 -0.25506976978E+02 -0.63105153200E+03  0.63163637411E+03  0.00000000000E+00 0.  1.
<mgrwt>
<rscale>  2 0.27174861E+02</rscale>
<asrwt>0</asrwt>
<pdfrwt beam="1">  1       21 0.15418786E-03 0.27174861E+02</pdfrwt>
<pdfrwt beam="2">  1       21 0.13714534E+00 0.27174861E+02</pdfrwt>
<totfact> 0.21588968E+07</totfact>
</mgrwt>
</event>
<event>
 4    1  0.9374408E+003  0.3134528E+02  0.7546771E-02  0.1583677E+00
         21   -1    0    0  504  501  0.00000000000E+00  0.00000000000E+00  0.79004671337E+02  0.79004671337E+02  0.00000000000E+00 0. -1.
         21   -1    0    0  501  502 -0.00000000000E+00 -0.00000000000E+00 -0.34950157279E+02  0.34950157279E+02  0.00000000000E+00 0. -1.
         21    1    1    2  503  502 -0.13761942783E+02  0.28162665357E+02  0.67757446658E+02  0.74656535995E+02  0.00000000000E+00 0. -1.
         21    1    1    2  504  503  0.13761942783E+02 -0.28162665357E+02 -0.23702932599E+02  0.39298292622E+02  0.00000000000E+00 0. -1.
<mgrwt>
<rscale>  2 0.31345283E+02</rscale>
<asrwt>0</asrwt>
<pdfrwt beam="1">  1       21 0.12154565E-01 0.31345283E+02</pdfrwt>
<pdfrwt beam="2">  1       21 0.53769473E-02 0.31345283E+02</pdfrwt>
<totfact> 0.11339574E+07</totfact>
</mgrwt>
</event>
<event>
 4    1  0.9374408E+003  0.3024256E+02  0.7546771E-02  0.1595423E+00
         21   -1    0    0  502  501  0.00000000000E+00  0.00000000000E+00  0.13624692518E+03  0.13624692518E+03  0.00000000000E+00 0. -1.
         21   -1    0    0  503  502 -0.00000000000E+00 -0.00000000000E+00 -0.15224147911E+02  0.15224147911E+02  0.00000000000E+00 0. -1.
         21    1    1    2  503  504 -0.41280841435E+00  0.30239744710E+02  0.11713919255E+03  0.12098017607E+03  0.00000000000E+00 0.  1.
         21    1    1    2  504  501  0.41280841435E+00 -0.30239744710E+02  0.38835847205E+01  0.30490897022E+02  0.00000000000E+00 0.  1.
<mgrwt>
<rscale>  2 0.30242562E+02</rscale>
<asrwt>0</asrwt>
<pdfrwt beam="1">  1       21 0.20961065E-01 0.30242562E+02</pdfrwt>
<pdfrwt beam="2">  1       21 0.23421767E-02 0.30242562E+02</pdfrwt>
<totfact> 0.16378225E+07</totfact>
</mgrwt>
</event>
<event>
 4    1  0.9374408E+003  0.2332053E+02  0.7546771E-02  0.1686367E+00
         21   -1    0    0  502  501  0.00000000000E+00  0.00000000000E+00  0.52364056685E+01  0.52364056685E+01  0.00000000000E+00 0.  1.
         21   -1    0    0  503  502 -0.00000000000E+00 -0.00000000000E+00 -0.12178832065E+03  0.12178832065E+03  0.00000000000E+00 0.  1.
         21    1    1    2  503  504 -0.23061917345E+02 -0.34633625196E+01 -0.82645061040E+02  0.85872306513E+02  0.00000000000E+00 0.  1.
         21    1    1    2  504  501  0.23061917345E+02  0.34633625196E+01 -0.33906853938E+02  0.41152419802E+02  0.00000000000E+00 0.  1.
<mgrwt>
<rscale>  2 0.23320526E+02</rscale>
<asrwt>0</asrwt>
<pdfrwt beam="1">  1       21 0.80560095E-03 0.23320526E+02</pdfrwt>
<pdfrwt beam="2">  1       21 0.18736663E-01 0.23320526E+02</pdfrwt>
<totfact> 0.95738393E+07</totfact>
</mgrwt>
</event>
<event>
 4    1  0.9374408E+003  0.2267365E+02  0.7546771E-02  0.1696855E+00
         21   -1    0    0  502  501  0.00000000000E+00  0.00000000000E+00  0.17739093258E+03  0.17739093258E+03  0.00000000000E+00 0. -1.
         21   -1    0    0  504  502 -0.00000000000E+00 -0.00000000000E+00 -0.65810024230E+01  0.65810024230E+01  0.00000000000E+00 0. -1.
         21    1    1    2  503  501  0.20989026161E+02 -0.85764224739E+01  0.16591810759E+02  0.28095950347E+02  0.00000000000E+00 0.  1.
         21    1    1    2  504  503 -0.20989026161E+02  0.85764224739E+01  0.15421811940E+03  0.15587598466E+03  0.00000000000E+00 0.  1.
<mgrwt>
<rscale>  2 0.22673646E+02</rscale>
<asrwt>0</asrwt>
<pdfrwt beam="1">  1       21 0.27290909E-01 0.22673646E+02</pdfrwt>
<pdfrwt beam="2">  1       21 0.10124620E-02 0.22673646E+02</pdfrwt>
<totfact> 0.34746713E+07</totfact>
</mgrwt>
</event>
<event>
 4    1  0.9374408E+003  0.2181726E+02  0.7546771E-02  0.1711432E+00
         21   -1    0    0  503  501  0.00000000000E+00  0.00000000000E+00  0.21982401837E+02  0.21982401837E+02  0.00000000000E+00 0. -1.
         21   -1    0    0  501  502 -0.00000000000E+00 -0.00000000000E+00 -0.23295909724E+02  0.23295909724E+02  0.00000000000E+00 0. -1.
         21    1    1    2  503  504 -0.51589485304E+01 -0.21198544217E+02  0.53546879545E+01  0.22464765967E+02  0.00000000000E+00 0. -1.
         21    1    1    2  504  502  0.51589485304E+01  0.21198544217E+02 -0.66681958413E+01  0.22813545595E+02  0.00000000000E+00 0. -1.
<mgrwt>
<rscale>  2 0.21817264E+02</rscale>
<asrwt>0</asrwt>
<pdfrwt beam="1">  1       21 0.33819080E-02 0.21817264E+02</pdfrwt>
<pdfrwt beam="2">  1       21 0.35839861E-02 0.21817264E+02</pdfrwt>
<totfact> 0.15827115E+08</totfact>
</mgrwt>
</event>
<event>
 4    1  0.9374408E+003  0.2216530E+02  0.7546771E-02  0.1705409E+00
         21   -1    0    0  502  501  0.00000000000E+00  0.00000000000E+00  0.29579040908E+03  0.29579040908E+03  0.00000000000E+00 0. -1.
         21   -1    0    0  504  502 -0.00000000000E+00 -0.00000000000E+00 -0.26672873945E+01  0.26672873945E+01  0.00000000000E+00 0. -1.
         21    1    1    2  503  501  0.42634629099E+01  0.21751404812E+02  0.54900662887E+02  0.59206279335E+02  0.00000000000E+00 0.  1.
         21    1    1    2  504  503 -0.42634629099E+01 -0.21751404812E+02  0.23822245880E+03  0.23925141714E+03  0.00000000000E+00 0.  1.
<mgrwt>
<rscale>  2 0.22165305E+02</rscale>
<asrwt>0</asrwt>
<pdfrwt beam="1">  1       21 0.45506191E-01 0.22165305E+02</pdfrwt>
<pdfrwt beam="2">  1       21 0.41035214E-03 0.22165305E+02</pdfrwt>
<totfact> 0.51141350E+07</totfact>
</mgrwt>
</event>
<event>
 4    1  0.9374408E+003  0.2298749E+02  0.7546771E-02  0.1691713E+00
         21   -1    0    0  502  501  0.00000000000E+00  0.00000000000E+00  0.81356673438E+01  0.81356673438E+01  0.00000000000E+00 0. -1.
         21   -1    0    0  504  502 -0.00000000000E+00 -0.00000000000E+00 -0.16507576553E+03  0.16507576553E+03  0.00000000000E+00 0. -1.
         21    1    1    2  503  501  0.18496265684E+02  0.13649643535E+02 -0.14591886860E+03  0.14771845120E+03  0.00000000000E+00 0. -1.
         21    1    1    2  504  503 -0.18496265684E+02 -0.13649643535E+02 -0.11021229590E+02  0.25492981672E+02  0.00000000000E+00 0. -1.
<mgrwt>
<rscale>  2 0.22987488E+02</rscale>
<asrwt>0</asrwt>
<pdfrwt beam="1">  1       21 0.12516412E-02 0.22987488E+02</pdfrwt>
<pdfrwt beam="2">  1       21 0.25396270E-01 0.22987488E+02</pdfrwt>
<totfact> 0.28809201E+07</totfact>
</mgrwt>
</event>
<event>
 4    1  0.9374408E+003  0.2591190E+02  0.7546771E-02  0.1648239E+00
         21   -1    0    0  502  501  0.00000000000E+00  0.00000000000E+00  0.16276211592E+01  0.16276211592E+01  0.00000000000E+00 0. -1.
         21   -1    0    0  504  502 -0.00000000000E+00 -0.00000000000E+00 -0.44944464637E+03  0.44944464637E+03  0.00000000000E+00 0. -1.
         21    1    1    2  503  501 -0.23526202002E+02  0.10860213831E+02 -0.15926340308E+03  0.16135754703E+03  0.00000000000E+00 0.  1.
         21    1    1    2  504  503  0.23526202002E+02 -0.10860213831E+02 -0.28855362213E+03  0.28971472049E+03  0.00000000000E+00 0.  1.
<mgrwt>
<rscale>  2 0.25911897E+02</rscale>
<asrwt>0</asrwt>
<pdfrwt beam="1">  1       21 0.25040358E-03 0.25911897E+02</pdfrwt>
<pdfrwt beam="2">  1       21 0.69145241E-01 0.25911897E+02</pdfrwt>
<totfact> 0.47574321E+07</totfact>
</mgrwt>
</event>
<event>
 4    1  0.9374408E+003  0.2370492E+02  0.7546771E-02  0.1680332E+00
         21   -1    0    0  502  501  0.00000000000E+00  0.00000000000E+00  0.36929063889E+02  0.36929063889E+02  0.00000000000E+00 0. -1.
         21   -1    0    0  504  502 -0.00000000000E+00 -0.00000000000E+00 -0.25337565309E+02  0.25337565309E+02  0.00000000000E+00 0. -1.
         21    1    1    2  503  501  0.21504920062E+02 -0.99730551099E+01 -0.13881323779E+02  0.27470248724E+02  0.00000000000E+00 0.  1.
         21    1    1    2  504  503 -0.21504920062E+02  0.99730551099E+01  0.25472822360E+02  0.34796380474E+02  0.00000000000E+00 0.  1.
<mgrwt>
<rscale>  2 0.23704924E+02</rscale>
<asrwt>0</asrwt>
<pdfrwt beam="1">  1       21 0.56813945E-02 0.23704924E+02</pdfrwt>
<pdfrwt beam="2">  1       21 0.38980869E-02 0.23704924E+02</pdfrwt>
<totfact> 0.62537350E+07</totfact>
</mgrwt>
</event>
<event>
 4    1  0.9374408E+003  0.5582824E+02  0.7546771E-02  0.1416222E+00
         21   -1    0    0  504  501  0.00000000000E+00  0.00000000000E+00  0.10716174479E+04  0.10716174479E+04  0.00000000000E+00 0.  1.
         21   -1    0    0  501  502 -0.00000000000E+00 -0.00000000000E+00 -0.52484378757E+01  0.52484378757E+01  0.00000000000E+00 0.  1.
         21    1    1    2  503  502  0.12078197411E+02  0.54506049690E+02  0.89270145146E+03  0.89444545599E+03  0.00000000000E+00 0.  1.
         21    1    1    2  504  503 -0.12078197411E+02 -0.54506049690E+02  0.17366755860E+03  0.18242042982E+03  0.00000000000E+00 0.  1.
<mgrwt>
<rscale>  2 0.55828239E+02</rscale>
<asrwt>0</asrwt>
<pdfrwt beam="1">  1       21 0.16486405E+00 0.55828239E+02</pdfrwt>
<pdfrwt beam="2">  1       21 0.80745283E-03 0.55828239E+02</pdfrwt>
<totfact> 0.12414474E+06</totfact>
</mgrwt>
</event>
<event>
 4    1  0.9374408E+003  0.2274044E+02  0.7546771E-02  0.1695752E+00
         21   -1    0    0  502  501  0.00000000000E+00  0.00000000000E+00  0.93370615928E+00  0.93370615928E+00  0.00000000000E+00 0. -1.
         21   -1    0    0  504  502 -0.00000000000E+00 -0.00000000000E+00 -0.13851363988E+04  0.13851363988E+04  0.00000000000E+00 0. -1.
         21    1    1    2  503  501  0.20437557295E+02 -0.99716468815E+01 -0.12289920112E+04  0.12292023801E+04  0.00000000000E+00 0. -1.
         21    1    1    2  504  503 -0.20437557295E+02  0.99716468815E+01 -0.15521068144E+03  0.15686772493E+03  0.00000000000E+00 0. -1.
<mgrwt>
<rscale>  2 0.22740437E+02</rscale>
<asrwt>0</asrwt>
<pdfrwt beam="1">  1       21 0.14364710E-03 0.22740437E+02</pdfrwt>
<pdfrwt beam="2">  1       21 0.21309791E+00 0.22740437E+02</pdfrwt>
<totfact> 0.78453078E+06</totfact>
</mgrwt>
</event>
<event>
 4    1  0.9374408E+003  0.2026308E+02  0.7546771E-02  0.1740146E+00
         21   -1    0    0  502  501  0.00000000000E+00  0.00000000000E+00  0.59155936642E+01  0.59155936642E+01  0.00000000000E+00 0.  1.
         21   -1    0    0  503  502 -0.00000000000E+00 -0.00000000000E+00 -0.83475788663E+02  0.83475788663E+02  0.00000000000E+00 0.  1.
         21    1    1    2  503  504  0.16967141807E+02 -0.11077393372E+02 -0.57128169236E+02  0.60615346780E+02  0.00000000000E+00 0.  1.
         21    1    1    2  504  501 -0.16967141807E+02  0.11077393372E+02 -0.20432025763E+02  0.28776035547E+02  0.00000000000E+00 0.  1.
<mgrwt>
<rscale>  2 0.20263083E+02</rscale>
<asrwt>0</asrwt>
<pdfrwt beam="1">  1       21 0.91009134E-03 0.20263083E+02</pdfrwt>
<pdfrwt beam="2">  1       21 0.12842429E-01 0.20263083E+02</pdfrwt>
<totfact> 0.14581138E+08</totfact>
</mgrwt>
</event>
<event>
 4    1  0.9374408E+003  0.2479093E+02  0.7546771E-02  0.1664023E+00
         21   -1    0    0  502  501  0.00000000000E+00  0.00000000000E+00  0.14687990044E+02  0.14687990044E+02  0.00000000000E+00 0.  1.
         21   -1    0    0  503  502 -0.00000000000E+00 -0.00000000000E+00 -0.54838869058E+02  0.54838869058E+02  0.00000000000E+00 0.  1.
         21    1    1    2  503  504  0.20777417182E+02 -0.13523658520E+02 -0.36998545755E+02  0.44536308698E+02  0.00000000000E+00 0. -1.
         21    1    1    2  504  501 -0.20777417182E+02  0.13523658520E+02 -0.31523332583E+01  0.24990550404E+02  0.00000000000E+00 0. -1.
<mgrwt>
<rscale>  2 0.24790934E+02</rscale>
<asrwt>0</asrwt>
<pdfrwt beam="1">  1       21 0.22596908E-02 0.24790934E+02</pdfrwt>
<pdfrwt beam="2">  1       21 0.84367491E-02 0.24790934E+02</pdfrwt>
<totfact> 0.78007301E+07</totfact>
</mgrwt>
</event>
<event>
 4    1  0.9374408E+003  0.4779959E+02  0.7546771E-02  0.1457585E+00
         21   -1    0    0  502  501  0.00000000000E+00  0.00000000000E+00  0.45925832402E+03  0.45925832402E+03  0.00000000000E+00 0.  1.
         21   -1    0    0  504  502 -0.00000000000E+00 -0.00000000000E+00 -0.54996246878E+01  0.54996246878E+01  0.00000000000E+00 0.  1.
         21    1    1    2  503  501  0.75010322847E+01 -0.47207364422E+02  0.15510600969E+03  0.16230426668E+03  0.00000000000E+00 0. -1.
         21    1    1    2  504  503 -0.75010322847E+01  0.47207364422E+02  0.29865268964E+03  0.30245368203E+03  0.00000000000E+00 0. -1.
<mgrwt>
<rscale>  2 0.47799589E+02</rscale>
<asrwt>0</asrwt>
<pdfrwt beam="1">  1       21 0.70655097E-01 0.47799589E+02</pdfrwt>
<pdfrwt beam="2">  1       21 0.84609647E-03 0.47799589E+02</pdfrwt>
<totfact> 0.81162759E+06</totfact>
</mgrwt>
</event>
<event>
 4    1  0.9374408E+003  0.2726734E+02  0.7546771E-02  0.1630420E+00
         21   -1    0    0  504  501  0.00000000000E+00  0.00000000000E+00  0.49478181268E+02  0.49478181268E+02  0.00000000000E+00 0. -1.
         21   -1    0    0  501  502 -0.00000000000E+00 -0.00000000000E+00 -0.30788379029E+02  0.30788379029E+02  0.00000000000E+00 0. -1.
         21    1    1    2  503  502 -0.16809361495E+02  0.21469819516E+02 -0.19370083403E+02  0.33447091279E+02  0.00000000000E+00 0. -1.
         21    1    1    2  504  503  0.16809361495E+02 -0.21469819516E+02  0.38059885642E+02  0.46819469017E+02  0.00000000000E+00 0. -1.
<mgrwt>
<rscale>  2 0.27267339E+02</rscale>
<asrwt>0</asrwt>
<pdfrwt beam="1">  1       21 0.76120279E-02 0.27267339E+02</pdfrwt>
<pdfrwt beam="2">  1       21 0.47366737E-02 0.27267339E+02</pdfrwt>
<totfact> 0.29535781E+07</totfact>
</mgrwt>
</event>
<event>
 4    1  0.9374408E+003  0.2104281E+02  0.7546771E-02  0.1725352E+00
         21   -1    0    0  502  501  0.00000000000E+00  0.00000000000E+00  0.17224764176E+01  0.17224764176E+01  0.00000000000E+00 0. -1.
         21   -1    0    0  504  502 -0.00000000000E+00 -0.00000000000E+00 -0.26733661022E+03  0.26733661022E+03  0.00000000000E+00 0. -1.
         21    1    1    2  503  501  0.18583710415E+02 -0.98714485060E+01 -0.10644570158E+03  0.10850570111E+03  0.00000000000E+00 0.  1.
         21    1    1    2  504  503 -0.18583710415E+02  0.98714485060E+01 -0.15916843222E+03  0.16055338553E+03  0.00000000000E+00 0.  1.
<mgrwt>
<rscale>  2 0.21042808E+02</rscale>
<asrwt>0</asrwt>
<pdfrwt beam="1">  1       21 0.26499665E-03 0.21042808E+02</pdfrwt>
<pdfrwt beam="2">  1       21 0.41128665E-01 0.21042808E+02</pdfrwt>
<totfact> 0.11563734E+08</totfact>
</mgrwt>
</event>
<event>
 4    1  0.9374408E+003  0.2322194E+02  0.7546771E-02  0.1687938E+00
         21   -1    0    0  502  501  0.00000000000E+00  0.00000000000E+00  0.17251920812E+02  0.17251920812E+02  0.00000000000E+00 0. -1.
         21   -1    0    0  504  502 -0.00000000000E+00 -0.00000000000E+00 -0.90246568669E+02  0.90246568669E+02  0.00000000000E+00 0. -1.
         21    1    1    2  503  501 -0.69854638663E+01  0.22146371984E+02 -0.79952486813E+02  0.83256583194E+02  0.00000000000E+00 0. -1.
         21    1    1    2  504  503  0.69854638663E+01 -0.22146371984E+02  0.69578389566E+01  0.24241906287E+02  0.00000000000E+00 0. -1.
<mgrwt>
<rscale>  2 0.23221940E+02</rscale>
<asrwt>0</asrwt>
<pdfrwt beam="1">  1       21 0.26541416E-02 0.23221940E+02</pdfrwt>
<pdfrwt beam="2">  1       21 0.13884088E-01 0.23221940E+02</pdfrwt>
<totfact> 0.26087778E+07</totfact>
</mgrwt>
</event>
<event>
 4    1  0.9374408E+003  0.2484685E+02  0.7546771E-02  0.1663211E+00
         21   -1    0    0  502  501  0.00000000000E+00  0.00000000000E+00  0.84784705813E+01  0.84784705813E+01  0.00000000000E+00 0.  1.
         21   -1    0    0  503  502 -0.00000000000E+00 -0.00000000000E+00 -0.10462182017E+03  0.10462182017E+03  0.00000000000E+00 0.  1.
         21    1    1    2  503  504  0.23338249300E+02 -0.85259687395E+01 -0.79251791329E+02  0.83055478159E+02  0.00000000000E+00 0. -1.
         21    1    1    2  504  501 -0.23338249300E+02  0.85259687395E+01 -0.16891558263E+02  0.30044812595E+02  0.00000000000E+00 0. -1.
<mgrwt>
<rscale>  2 0.24846851E+02</rscale>
<asrwt>0</asrwt>
<pdfrwt beam="1">  1       21 0.13043801E-02 0.24846851E+02</pdfrwt>
<pdfrwt beam="2">  1       21 0.16095665E-01 0.24846851E+02</pdfrwt>
<totfact> 0.61254657E+07</totfact>
</mgrwt>
</event>
<event>
 4    1  0.9374408E+003  0.3038617E+02  0.7546771E-02  0.1593859E+00
         21   -1    0    0  504  501  0.00000000000E+00  0.00000000000E+00  0.15438294535E+03  0.15438294535E+03  0.00000000000E+00 0.  1.
         21   -1    0    0  501  502 -0.00000000000E+00 -0.00000000000E+00 -0.65310900957E+01  0.65310900957E+01  0.00000000000E+00 0.  1.
         21    1    1    2  503  502 -0.29475935167E+02 -0.73816577530E+01  0.97282142007E+02  0.10191729381E+03  0.00000000000E+00 0. -1.
         21    1    1    2  504  503  0.29475935167E+02  0.73816577530E+01  0.50569713249E+02  0.58996741632E+02  0.00000000000E+00 0. -1.
<mgrwt>
<rscale>  2 0.30386175E+02</rscale>
<asrwt>0</asrwt>
<pdfrwt beam="1">  1       21 0.23751220E-01 0.30386175E+02</pdfrwt>
<pdfrwt beam="2">  1       21 0.10047832E-02 0.30386175E+02</pdfrwt>
<totfact> 0.48144961E+07</totfact>
</mgrwt>
</event>
<event>
 4    1  0.9374408E+003  0.2740327E+02  0.7546771E-02  0.1628704E+00
         21   -1    0    0  502  501  0.00000000000E+00  0.00000000000E+00  0.84760038310E+02  0.84760038310E+02  0.00000000000E+00 0. -1.
         21   -1    0    0  503  502 -0.00000000000E+00 -0.00000000000E+00 -0.12044220760E+02  0.12044220760E+02  0.00000000000E+00 0. -1.
         21    1    1    2  503  504 -0.14493198198E+02  0.23256963004E+02  0.11469065578E+02  0.29706541156E+02  0.00000000000E+00 0.  1.
         21    1    1    2  504  501  0.14493198198E+02 -0.23256963004E+02  0.61246751972E+02  0.67097717914E+02  0.00000000000E+00 0.  1.
<mgrwt>
<rscale>  2 0.27403268E+02</rscale>
<asrwt>0</asrwt>
<pdfrwt beam="1">  1       21 0.13040005E-01 0.27403268E+02</pdfrwt>
<pdfrwt beam="2">  1       21 0.18529571E-02 0.27403268E+02</pdfrwt>
<totfact> 0.52513299E+07</totfact>
</mgrwt>
</event>
<event>
 4    1  0.9374408E+003  0.3749318E+02  0.7546771E-02  0.1527513E+00
         21   -1    0    0  504  501  0.00000000000E+00  0.00000000000E+00  0.99385639102E+01  0.99385639102E+01  0.00000000000E+00 0.  1.
         21   -1    0    0  501  502 -0.00000000000E+00 -0.00000000000E+00 -0.23193421227E+03  0.23193421227E+03  0.00000000000E+00 0.  1.
         21    1    1    2  503  502 -0.36632642476E+02 -0.79867268786E+01 -0.35457599779E+02  0.51604066536E+02  0.00000000000E+00 0. -1.
         21    1    1    2  504  503  0.36632642476E+02  0.79867268786E+01 -0.18653804858E+03  0.19026870965E+03  0.00000000000E+00 0. -1.
<mgrwt>
<rscale>  2 0.37493177E+02</rscale>
<asrwt>0</asrwt>
<pdfrwt beam="1">  1       21 0.15290097E-02 0.37493177E+02</pdfrwt>
<pdfrwt beam="2">  1       21 0.35682190E-01 0.37493177E+02</pdfrwt>
<totfact> 0.12409076E+07</totfact>
</mgrwt>
</event>
<event>
 4    1  0.9374408E+003  0.2006368E+02  0.7546771E-02  0.1744065E+00
         21   -1    0    0  503  501  0.00000000000E+00  0.00000000000E+00  0.28551836268E+01  0.28551836268E+01  0.00000000000E+00 0.  1.
         21   -1    0    0  501  502 -0.00000000000E+00 -0.00000000000E+00 -0.16691307712E+03  0.16691307712E+03  0.00000000000E+00 0.  1.
         21    1    1    2  503  504 -0.67468036103E+01  0.18895284246E+02 -0.48576479129E+02  0.52556878240E+02  0.00000000000E+00 0.  1.
         21    1    1    2  504  502  0.67468036103E+01 -0.18895284246E+02 -0.11548141436E+03  0.11721138251E+03  0.00000000000E+00 0.  1.
<mgrwt>
<rscale>  2 0.20063677E+02</rscale>
<asrwt>0</asrwt>
<pdfrwt beam="1">  1       21 0.43925896E-03 0.20063677E+02</pdfrwt>
<pdfrwt beam="2">  1       21 0.25678938E-01 0.20063677E+02</pdfrwt>
<totfact> 0.12929149E+08</totfact>
</mgrwt>
</event>
<event>
 4    1  0.9374408E+003  0.2630025E+02  0.7546771E-02  0.1642999E+00
         21   -1    0    0  504  501  0.00000000000E+00  0.00000000000E+00  0.14796538289E+03  0.14796538289E+03  0.00000000000E+00 0.  1.
         21   -1    0    0  501  502 -0.00000000000E+00 -0.00000000000E+00 -0.56282520633E+01  0.56282520633E+01  0.00000000000E+00 0.  1.
         21    1    1    2  503  502  0.13382988123E+02 -0.22640648750E+02  0.39559334662E+02  0.47504150406E+02  0.00000000000E+00 0. -1.
         21    1    1    2  504  503 -0.13382988123E+02  0.22640648750E+02  0.10277779616E+03  0.10608948455E+03  0.00000000000E+00 0. -1.
<mgrwt>
<rscale>  2 0.26300254E+02</rscale>
<asrwt>0</asrwt>
<pdfrwt beam="1">  1       21 0.22763902E-01 0.26300254E+02</pdfrwt>
<pdfrwt beam="2">  1       21 0.86588505E-03 0.26300254E+02</pdfrwt>
<totfact> 0.62937942E+07</totfact>
</mgrwt>
</event>
<event>
 4    1  0.9374408E+003  0.2065310E+02  0.7546771E-02  0.1732644E+00
         21   -1    0    0  503  501  0.00000000000E+00  0.00000000000E+00  0.20937860263E+02  0.20937860263E+02  0.00000000000E+00 0. -1.
         21   -1    0    0  501  502 -0.00000000000E+00 -0.00000000000E+00 -0.28038400742E+02  0.28038400742E+02  0.00000000000E+00 0. -1.
         21    1    1    2  503  504  0.69962847509E+01  0.19432001618E+02 -0.16354944952E+02  0.26344542349E+02  0.00000000000E+00 0. -1.
         21    1    1    2  504  502 -0.69962847509E+01 -0.19432001618E+02  0.92544044726E+01  0.22631718657E+02  0.00000000000E+00 0. -1.
<mgrwt>
<rscale>  2 0.20653104E+02</rscale>
<asrwt>0</asrwt>
<pdfrwt beam="1">  1       21 0.32212093E-02 0.20653104E+02</pdfrwt>
<pdfrwt beam="2">  1       21 0.43136001E-02 0.20653104E+02</pdfrwt>
<totfact> 0.12552347E+08</totfact>
</mgrwt>
</event>
<event>
 4    1  0.9374408E+003  0.2047521E+02  0.7546771E-02  0.1736040E+00
         21   -1    0    0  502  501  0.00000000000E+00  0.00000000000E+00  0.65694095816E+01  0.65694095816E+01  0.00000000000E+00 0. -1.
         21   -1    0    0  504  502 -0.00000000000E+00 -0.00000000000E+00 -0.68628896648E+02  0.68628896648E+02  0.00000000000E+00 0. -1.
         21    1    1    2  503  501 -0.10950486203E+02  0.17300898840E+02 -0.40986600787E+02  0.45816325614E+02  0.00000000000E+00 0.  1.
         21    1    1    2  504  503  0.10950486203E+02 -0.17300898840E+02 -0.21072886280E+02  0.29381980616E+02  0.00000000000E+00 0.  1.
<mgrwt>
<rscale>  2 0.20475211E+02</rscale>
<asrwt>0</asrwt>
<pdfrwt beam="1">  1       21 0.10106784E-02 0.20475211E+02</pdfrwt>
<pdfrwt beam="2">  1       21 0.10558292E-01 0.20475211E+02</pdfrwt>
<totfact> 0.17321019E+08</totfact>
</mgrwt>
</event>
<event>
 4    1  0.9374408E+003  0.2427459E+02  0.7546771E-02  0.1671645E+00
         21   -1    0    0  504  501  0.00000000000E+00  0.00000000000E+00  0.66778931442E+00  0.66778931442E+00  0.00000000000E+00 0.  1.
         21   -1    0    0  501  502 -0.00000000000E+00 -0.00000000000E+00 -0.14597454512E+04  0.14597454512E+04  0.00000000000E+00 0.  1.
         21    1    1    2  503  502 -0.16376746289E+02  0.17918091130E+02 -0.11887642402E+04  0.11890120582E+04  0.00000000000E+00 0. -1.
         21    1    1    2  504  503  0.16376746289E+02 -0.17918091130E+02 -0.27031342171E+03  0.27140118232E+03  0.00000000000E+00 0. -1.
<mgrwt>
<rscale>  2 0.24274592E+02</rscale>
<asrwt>0</asrwt>
<pdfrwt beam="1">  1       21 0.10273922E-03 0.24274592E+02</pdfrwt>
<pdfrwt beam="2">  1       21 0.22457097E+00 0.24274592E+02</pdfrwt>
<totfact> 0.11083878E+07</totfact>
</mgrwt>
</event>
<event>
 4    1  0.9374408E+003  0.2402503E+02  0.7546771E-02  0.1675414E+00
         21   -1    0    0  502  501  0.00000000000E+00  0.00000000000E+00  0.15160474948E+01  0.15160474948E+01  0.00000000000E+00 0.  1.
         21   -1    0    0  504  502 -0.00000000000E+00 -0.00000000000E+00 -0.44852948682E+03  0.44852948682E+03  0.00000000000E+00 0.  1.
         21    1    1    2  503  501 -0.23637262692E+02  0.42990458711E+01 -0.31099503160E+03  0.31192164346E+03  0.00000000000E+00 0.  1.
         21    1    1    2  504  503  0.23637262692E+02 -0.42990458711E+01 -0.13601840773E+03  0.13812389085E+03  0.00000000000E+00 0.  1.
<mgrwt>
<rscale>  2 0.24025028E+02</rscale>
<asrwt>0</asrwt>
<pdfrwt beam="1">  1       21 0.23323807E-03 0.24025028E+02</pdfrwt>
<pdfrwt beam="2">  1       21 0.69004537E-01 0.24025028E+02</pdfrwt>
<totfact> 0.52111972E+07</totfact>
</mgrwt>
</event>
<event>
 4    1  0.9374408E+003  0.2142389E+02  0.7546771E-02  0.1718410E+00
         21   -1    0    0  503  501  0.00000000000E+00  0.00000000000E+00  0.41654395825E+03  0.41654395825E+03  0.00000000000E+00 0. -1.
         21   -1    0    0  501  502 -0.00000000000E+00 -0.00000000000E+00 -0.12395095835E+01  0.12395095835E+01  0.00000000000E+00 0. -1.
         21    1    1    2  503  504  0.16288789600E+02  0.13916121947E+02  0.13804634561E+03  0.13969887850E+03  0.00000000000E+00 0. -1.
         21    1    1    2  504  502 -0.16288789600E+02 -0.13916121947E+02  0.27725810306E+03  0.27808458934E+03  0.00000000000E+00 0. -1.
<mgrwt>
<rscale>  2 0.21423891E+02</rscale>
<asrwt>0</asrwt>
<pdfrwt beam="1">  1       21 0.64083574E-01 0.21423891E+02</pdfrwt>
<pdfrwt beam="2">  1       21 0.19069411E-03 0.21423891E+02</pdfrwt>
<totfact> 0.78826914E+07</totfact>
</mgrwt>
</event>
<event>
 4    1  0.9374408E+003  0.2281266E+02  0.7546771E-02  0.1694565E+00
         21   -1    0    0  502  501  0.00000000000E+00  0.00000000000E+00  0.39123664683E+01  0.39123664683E+01  0.00000000000E+00 0.  1.
         21   -1    0    0  504  502 -0.00000000000E+00 -0.00000000000E+00 -0.26925290749E+03  0.26925290749E+03  0.00000000000E+00 0.  1.
         21    1    1    2  503  501 -0.11614652225E+02 -0.19634591958E+02 -0.22982380454E+03  0.23095323873E+03  0.00000000000E+00 0.  1.
         21    1    1    2  504  503  0.11614652225E+02  0.19634591958E+02 -0.35516736484E+02  0.42212035229E+02  0.00000000000E+00 0.  1.
<mgrwt>
<rscale>  2 0.22812658E+02</rscale>
<asrwt>0</asrwt>
<pdfrwt beam="1">  1       21 0.60190267E-03 0.22812658E+02</pdfrwt>
<pdfrwt beam="2">  1       21 0.41423515E-01 0.22812658E+02</pdfrwt>
<totfact> 0.35015637E+07</totfact>
</mgrwt>
</event>
<event>
 4    1  0.9374408E+003  0.2953917E+02  0.7546771E-02  0.1603239E+00
         21   -1    0    0  504  501  0.00000000000E+00  0.00000000000E+00  0.13675136630E+03  0.13675136630E+03  0.00000000000E+00 0.  1.
         21   -1    0    0  501  502 -0.00000000000E+00 -0.00000000000E+00 -0.15495651260E+02  0.15495651260E+02  0.00000000000E+00 0.  1.
         21    1    1    2  503  502  0.15181130050E+02 -0.25339615697E+02  0.22440777158E+01  0.29624292702E+02  0.00000000000E+00 0. -1.
         21    1    1    2  504  503 -0.15181130050E+02  0.25339615697E+02  0.11901163733E+03  0.12262272486E+03  0.00000000000E+00 0. -1.
<mgrwt>
<rscale>  2 0.29539175E+02</rscale>
<asrwt>0</asrwt>
<pdfrwt beam="1">  1       21 0.21038671E-01 0.29539175E+02</pdfrwt>
<pdfrwt beam="2">  1       21 0.23839464E-02 0.29539175E+02</pdfrwt>
<totfact> 0.15765725E+07</totfact>
</mgrwt>
</event>
<event>
 4    1  0.9374408E+003  0.2362095E+02  0.7546771E-02  0.1681638E+00
         21   -1    0    0  502  501  0.00000000000E+00  0.00000000000E+00  0.39758284879E+01  0.39758284879E+01  0.00000000000E+00 0.  1.
         21   -1    0    0  503  502 -0.00000000000E+00 -0.00000000000E+00 -0.23794956417E+03  0.23794956417E+03  0.00000000000E+00 0.  1.
         21    1    1    2  503  504  0.22242857401E+02  0.79501364410E+01 -0.39511172699E+02  0.46033489362E+02  0.00000000000E+00 0. -1.
         21    1    1    2  504  501 -0.22242857401E+02 -0.79501364410E+01 -0.19446256298E+03  0.19589190329E+03  0.00000000000E+00 0. -1.
<mgrwt>
<rscale>  2 0.23620952E+02</rscale>
<asrwt>0</asrwt>
<pdfrwt beam="1">  1       21 0.61166579E-03 0.23620952E+02</pdfrwt>
<pdfrwt beam="2">  1       21 0.36607633E-01 0.23620952E+02</pdfrwt>
<totfact> 0.43474197E+07</totfact>
</mgrwt>
</event>
<event>
 4    1  0.9374408E+003  0.2029086E+02  0.7546771E-02  0.1739605E+00
         21   -1    0    0  504  501  0.00000000000E+00  0.00000000000E+00  0.25163738710E+02  0.25163738710E+02  0.00000000000E+00 0.  1.
         21   -1    0    0  501  502 -0.00000000000E+00 -0.00000000000E+00 -0.49959035606E+02  0.49959035606E+02  0.00000000000E+00 0.  1.
         21    1    1    2  503  502 -0.20116761798E+02  0.26523335274E+01  0.18404972895E+02  0.27394561607E+02  0.00000000000E+00 0. -1.
         21    1    1    2  504  503  0.20116761798E+02 -0.26523335274E+01 -0.43200269791E+02  0.47728212709E+02  0.00000000000E+00 0. -1.
<mgrwt>
<rscale>  2 0.20290859E+02</rscale>
<asrwt>0</asrwt>
<pdfrwt beam="1">  1       21 0.38713444E-02 0.20290859E+02</pdfrwt>
<pdfrwt beam="2">  1       21 0.76860055E-02 0.20290859E+02</pdfrwt>
<totfact> 0.37295934E+07</totfact>
</mgrwt>
</event>
<event>
 4    1  0.9374408E+003  0.2034969E+02  0.7546771E-02  0.1738462E+00
         21   -1    0    0  504  501  0.00000000000E+00  0.00000000000E+00  0.70052611456E+03  0.70052611456E+03  0.00000000000E+00 0. -1.
         21   -1    0    0  501  502 -0.00000000000E+00 -0.00000000000E+00 -0.11748270165E+01  0.11748270165E+01  0.00000000000E+00 0. -1.
         21    1    1    2  503  502  0.10210140987E+02  0.17602926839E+02  0.59697591001E+03  0.59732264912E+03  0.00000000000E+00 0.  1.
         21    1    1    2  504  503 -0.10210140987E+02 -0.17602926839E+02  0.10237537753E+03  0.10437829246E+03  0.00000000000E+00 0.  1.
<mgrwt>
<rscale>  2 0.20349693E+02</rscale>
<asrwt>0</asrwt>
<pdfrwt beam="1">  1       21 0.10777291E+00 0.20349693E+02</pdfrwt>
<pdfrwt beam="2">  1       21 0.18074318E-03 0.20349693E+02</pdfrwt>
<totfact> 0.28158832E+07</totfact>
</mgrwt>
</event>
<event>
 4    1  0.9374408E+003  0.2111984E+02  0.7546771E-02  0.1723934E+00
         21   -1    0    0  504  501  0.00000000000E+00  0.00000000000E+00  0.64250375384E+01  0.64250375384E+01  0.00000000000E+00 0. -1.
         21   -1    0    0  501  502 -0.00000000000E+00 -0.00000000000E+00 -0.11286975412E+03  0.11286975412E+03  0.00000000000E+00 0. -1.
         21    1    1    2  503  502 -0.15457776147E+02  0.14391130423E+02 -0.16215711541E+02  0.26626993428E+02  0.00000000000E+00 0. -1.
         21    1    1    2  504  503  0.15457776147E+02 -0.14391130423E+02 -0.90229005045E+02  0.92667798235E+02  0.00000000000E+00 0. -1.
<mgrwt>
<rscale>  2 0.21119836E+02</rscale>
<asrwt>0</asrwt>
<pdfrwt beam="1">  1       21 0.98846733E-03 0.21119836E+02</pdfrwt>
<pdfrwt beam="2">  1       21 0.17364577E-01 0.21119836E+02</pdfrwt>
<totfact> 0.78233779E+07</totfact>
</mgrwt>
</event>
<event>
 4    1  0.9374408E+003  0.2216617E+02  0.7546771E-02  0.1705394E+00
         21   -1    0    0  504  501  0.00000000000E+00  0.00000000000E+00  0.31921253810E+02  0.31921253810E+02  0.00000000000E+00 0.  1.
         21   -1    0    0  501  502 -0.00000000000E+00 -0.00000000000E+00 -0.24420260721E+02  0.24420260721E+02  0.00000000000E+00 0.  1.
         21    1    1    2  503  502 -0.20147002317E+02 -0.92432439486E+01  0.20879019031E+02  0.30451152634E+02  0.00000000000E+00 0. -1.
         21    1    1    2  504  503  0.20147002317E+02  0.92432439486E+01 -0.13378025942E+02  0.25890361897E+02  0.00000000000E+00 0. -1.
<mgrwt>
<rscale>  2 0.22166174E+02</rscale>
<asrwt>0</asrwt>
<pdfrwt beam="1">  1       21 0.49109621E-02 0.22166174E+02</pdfrwt>
<pdfrwt beam="2">  1       21 0.37569632E-02 0.22166174E+02</pdfrwt>
<totfact> 0.82089274E+07</totfact>
</mgrwt>
</event>
<event>
 4    1  0.9374408E+003  0.4140472E+02  0.7546771E-02  0.1498121E+00
         21   -1    0    0  503  501  0.00000000000E+00  0.00000000000E+00  0.34109288964E+02  0.34109288964E+02  0.00000000000E+00 0.  1.
         21   -1    0    0  501  502 -0.00000000000E+00 -0.00000000000E+00 -0.59014009584E+02  0.59014009584E+02  0.00000000000E+00 0.  1.
         21    1    1    2  503  504 -0.14130840953E+02  0.38918764008E+02 -0.30384875852E+02  0.51357487658E+02  0.00000000000E+00 0. -1.
         21    1    1    2  504  502  0.14130840953E+02 -0.38918764008E+02  0.54801552323E+01  0.41765810890E+02  0.00000000000E+00 0. -1.
<mgrwt>
<rscale>  2 0.41404720E+02</rscale>
<asrwt>0</asrwt>
<pdfrwt beam="1">  1       21 0.52475829E-02 0.41404720E+02</pdfrwt>
<pdfrwt beam="2">  1       21 0.90790783E-02 0.41404720E+02</pdfrwt>
<totfact> 0.20189504E+07</totfact>
</mgrwt>
</event>
<event>
 4    1  0.9374408E+003  0.2491119E+02  0.7546771E-02  0.1662281E+00
         21   -1    0    0  502  501  0.00000000000E+00  0.00000000000E+00  0.78466519334E+00  0.78466519334E+00  0.00000000000E+00 0. -1.
         21   -1    0    0  504  502 -0.00000000000E+00 -0.00000000000E+00 -0.14946628592E+04  0.14946628592E+04  0.00000000000E+00 0. -1.
         21    1    1    2  503  501 -0.12006945779E+02 -0.21826607604E+02 -0.12600275381E+04  0.12602737656E+04  0.00000000000E+00 0.  1.
         21    1    1    2  504  503  0.12006945779E+02  0.21826607604E+02 -0.23385065595E+03  0.23517375882E+03  0.00000000000E+00 0.  1.
<mgrwt>
<rscale>  2 0.24911193E+02</rscale>
<asrwt>0</asrwt>
<pdfrwt beam="1">  1       21 0.12071828E-03 0.24911193E+02</pdfrwt>
<pdfrwt beam="2">  1       21 0.22994707E+00 0.24911193E+02</pdfrwt>
<totfact> 0.82712742E+06</totfact>
</mgrwt>
</event>
<event>
 4    1  0.9374408E+003  0.2235942E+02  0.7546771E-02  0.1702109E+00
         21   -1    0    0  504  501  0.00000000000E+00  0.00000000000E+00  0.23999283563E+02  0.23999283563E+02  0.00000000000E+00 0.  1.
         21   -1    0    0  501  502 -0.00000000000E+00 -0.00000000000E+00 -0.52510587740E+02  0.52510587740E+02  0.00000000000E+00 0.  1.
         21    1    1    2  503  502  0.20597109249E+01 -0.22264351956E+02  0.15457559657E+02  0.27182345883E+02  0.00000000000E+00 0.  1.
         21    1    1    2  504  503 -0.20597109249E+01  0.22264351956E+02 -0.43968863835E+02  0.49327525420E+02  0.00000000000E+00 0.  1.
<mgrwt>
<rscale>  2 0.22359423E+02</rscale>
<asrwt>0</asrwt>
<pdfrwt beam="1">  1       21 0.36921975E-02 0.22359423E+02</pdfrwt>
<pdfrwt beam="2">  1       21 0.80785519E-02 0.22359423E+02</pdfrwt>
<totfact> 0.37967259E+07</totfact>
</mgrwt>
</event>
<event>
 4    1  0.9374408E+003  0.4364512E+02  0.7546771E-02  0.1482982E+00
         21   -1    0    0  502  501  0.00000000000E+00  0.00000000000E+00  0.14096347619E+03  0.14096347619E+03  0.00000000000E+00 0.  1.
         21   -1    0    0  503  502 -0.00000000000E+00 -0.00000000000E+00 -0.15460012218E+02  0.15460012218E+02  0.00000000000E+00 0.  1.
         21    1    1    2  503  504 -0.11099062314E+02 -0.42210276269E+02  0.90504491320E+02  0.10047865224E+03  0.00000000000E+00 0.  1.
         21    1    1    2  504  501  0.11099062314E+02  0.42210276269E+02  0.34998972648E+02  0.55944836164E+02  0.00000000000E+00 0.  1.
<mgrwt>
<rscale>  2 0.43645121E+02</rscale>
<asrwt>0</asrwt>
<pdfrwt beam="1">  1       21 0.21686688E-01 0.43645121E+02</pdfrwt>
<pdfrwt beam="2">  1       21 0.23784635E-02 0.43645121E+02</pdfrwt>
<totfact> 0.15943791E+07</totfact>
</mgrwt>
</event>
<event>
 4    1  0.9374408E+003  0.2624128E+02  0.7546771E-02  0.1643787E+00
         21   -1    0    0  502  501  0.00000000000E+00  0.00000000000E+00  0.64841009858E+02  0.64841009858E+02  0.00000000000E+00 0.  1.
         21   -1    0    0  503  502 -0.00000000000E+00 -0.00000000000E+00 -0.30292663844E+02  0.30292663844E+02  0.00000000000E+00 0.  1.
         21    1    1    2  503  504 -0.25978679645E+02  0.37030933037E+01 -0.21058427883E+02  0.33646130253E+02  0.00000000000E+00 0.  1.
         21    1    1    2  504  501  0.25978679645E+02 -0.37030933037E+01  0.55606773897E+02  0.61487543449E+02  0.00000000000E+00 0.  1.
<mgrwt>
<rscale>  2 0.26241278E+02</rscale>
<asrwt>0</asrwt>
<pdfrwt beam="1">  1       21 0.99755400E-02 0.26241278E+02</pdfrwt>
<pdfrwt beam="2">  1       21 0.46604098E-02 0.26241278E+02</pdfrwt>
<totfact> 0.19246419E+07</totfact>
</mgrwt>
</event>
<event>
 4    1  0.9374408E+003  0.2438932E+02  0.7546771E-02  0.1669931E+00
         21   -1    0    0  503  501  0.00000000000E+00  0.00000000000E+00  0.14098363726E+01  0.14098363726E+01  0.00000000000E+00 0.  1.
         21   -1    0    0  501  502 -0.00000000000E+00 -0.00000000000E+00 -0.65076926912E+03  0.65076926912E+03  0.00000000000E+00 0.  1.
         21    1    1    2  503  504  0.31577417469E+01  0.24184037118E+02 -0.51805349276E+03  0.51862728461E+03  0.00000000000E+00 0. -1.
         21    1    1    2  504  502 -0.31577417469E+01 -0.24184037118E+02 -0.13130593999E+03  0.13355182088E+03  0.00000000000E+00 0. -1.
<mgrwt>
<rscale>  2 0.24389321E+02</rscale>
<asrwt>0</asrwt>
<pdfrwt beam="1">  1       21 0.21689751E-03 0.24389321E+02</pdfrwt>
<pdfrwt beam="2">  1       21 0.10011853E+00 0.24389321E+02</pdfrwt>
<totfact> 0.26407489E+07</totfact>
</mgrwt>
</event>
<event>
 4    1  0.9374408E+003  0.2515109E+02  0.7546771E-02  0.1658841E+00
         21   -1    0    0  504  501  0.00000000000E+00  0.00000000000E+00  0.64617182316E+01  0.64617182316E+01  0.00000000000E+00 0. -1.
         21   -1    0    0  501  502 -0.00000000000E+00 -0.00000000000E+00 -0.38824326641E+03  0.38824326641E+03  0.00000000000E+00 0. -1.
         21    1    1    2  503  502 -0.24794201584E+02 -0.42219778168E+01 -0.36155770776E+03  0.36243144672E+03  0.00000000000E+00 0.  1.
         21    1    1    2  504  503  0.24794201584E+02  0.42219778168E+01 -0.20223840417E+02  0.32273537923E+02  0.00000000000E+00 0.  1.
<mgrwt>
<rscale>  2 0.25151094E+02</rscale>
<asrwt>0</asrwt>
<pdfrwt beam="1">  1       21 0.99411035E-03 0.25151094E+02</pdfrwt>
<pdfrwt beam="2">  1       21 0.59729742E-01 0.25151094E+02</pdfrwt>
<totfact> 0.82717133E+06</totfact>
</mgrwt>
</event>
<event>
 4    1  0.9374408E+003  0.2046554E+02  0.7546771E-02  0.1736226E+00
         21   -1    0    0  502  501  0.00000000000E+00  0.00000000000E+00  0.30199508230E+03  0.30199508230E+03  0.00000000000E+00 0.  1.
         21   -1    0    0  503  502 -0.00000000000E+00 -0.00000000000E+00 -0.16394151973E+01  0.16394151973E+01  0.00000000000E+00 0.  1.
         21    1    1    2  503  504  0.17911905039E+02 -0.98996005692E+01  0.20975999566E+03  0.21075600635E+03  0.00000000000E+00 0. -1.
         21    1    1    2  504  501 -0.17911905039E+02  0.98996005692E+01  0.90595671442E+02  0.92878491146E+02  0.00000000000E+00 0. -1.
<mgrwt>
<rscale>  2 0.20465543E+02</rscale>
<asrwt>0</asrwt>
<pdfrwt beam="1">  1       21 0.46460738E-01 0.20465543E+02</pdfrwt>
<pdfrwt beam="2">  1       21 0.25221796E-03 0.20465543E+02</pdfrwt>
<totfact> 0.97799100E+07</totfact>
</mgrwt>
</event>
<event>
 4    1  0.9374408E+003  0.2059532E+02  0.7546771E-02  0.1733742E+00
         21   -1    0    0  502  501  0.00000000000E+00  0.00000000000E+00  0.93156653184E+00  0.93156653184E+00  0.00000000000E+00 0. -1.
         21   -1    0    0  503  502 -0.00000000000E+00 -0.00000000000E+00 -0.55900736505E+03  0.55900736505E+03  0.00000000000E+00 0. -1.
         21    1    1    2  503  504 -0.43568262149E+01 -0.20129211398E+02 -0.39961111812E+03  0.40014149099E+03  0.00000000000E+00 0. -1.
         21    1    1    2  504  501  0.43568262149E+01  0.20129211398E+02 -0.15846468039E+03  0.15979744059E+03  0.00000000000E+00 0. -1.
<mgrwt>
<rscale>  2 0.20595317E+02</rscale>
<asrwt>0</asrwt>
<pdfrwt beam="1">  1       21 0.14331806E-03 0.20595317E+02</pdfrwt>
<pdfrwt beam="2">  1       21 0.86001056E-01 0.20595317E+02</pdfrwt>
<totfact> 0.64076002E+07</totfact>
</mgrwt>
</event>
<event>
 4    1  0.9374408E+003  0.2208054E+02  0.7546771E-02  0.1706863E+00
         21   -1    0    0  502  501  0.00000000000E+00  0.00000000000E+00  0.76951623344E+01  0.76951623344E+01  0.00000000000E+00 0.  1.
         21   -1    0    0  504  502 -0.00000000000E+00 -0.00000000000E+00 -0.14156926709E+03  0.14156926709E+03  0.00000000000E+00 0.  1.
         21    1    1    2  503  501 -0.20984437175E+02  0.68704857665E+01 -0.11464714620E+02  0.24879506819E+02  0.00000000000E+00 0.  1.
         21    1    1    2  504  503  0.20984437175E+02 -0.68704857665E+01 -0.12240939014E+03  0.12438492261E+03  0.00000000000E+00 0.  1.
<mgrwt>
<rscale>  2 0.22080538E+02</rscale>
<asrwt>0</asrwt>
<pdfrwt beam="1">  1       21 0.11838713E-02 0.22080538E+02</pdfrwt>
<pdfrwt beam="2">  1       21 0.21779884E-01 0.22080538E+02</pdfrwt>
<totfact> 0.40736289E+07</totfact>
</mgrwt>
</event>
<event>
 4    1  0.9374408E+003  0.2470244E+02  0.7546771E-02  0.1665313E+00
         21   -1    0    0  502  501  0.00000000000E+00  0.00000000000E+00  0.74621082022E+01  0.74621082022E+01  0.00000000000E+00 0.  1.
         21   -1    0    0  503  502 -0.00000000000E+00 -0.00000000000E+00 -0.11955648315E+03  0.11955648315E+03  0.00000000000E+00 0.  1.
         21    1    1    2  503  504 -0.20670594302E+02 -0.13525417933E+02 -0.20345156117E+02  0.32002121437E+02  0.00000000000E+00 0.  1.
         21    1    1    2  504  501  0.20670594302E+02  0.13525417933E+02 -0.91749218826E+02  0.95016469910E+02  0.00000000000E+00 0.  1.
<mgrwt>
<rscale>  2 0.24702437E+02</rscale>
<asrwt>0</asrwt>
<pdfrwt beam="1">  1       21 0.11480168E-02 0.24702437E+02</pdfrwt>
<pdfrwt beam="2">  1       21 0.18393302E-01 0.24702437E+02</pdfrwt>
<totfact> 0.58943938E+07</totfact>
</mgrwt>
</event>
<event>
 4    1  0.9374408E+003  0.6948196E+02  0.7546771E-02  0.1361864E+00
         21   -1    0    0  502  501  0.00000000000E+00  0.00000000000E+00  0.11846186351E+03  0.11846186351E+03  0.00000000000E+00 0. -1.
         21   -1    0    0  504  502 -0.00000000000E+00 -0.00000000000E+00 -0.48989424602E+02  0.48989424602E+02  0.00000000000E+00 0. -1.
         21    1    1    2  503  501 -0.68171399628E+02 -0.13431418506E+02  0.69065279450E+02  0.97968135411E+02  0.00000000000E+00 0.  1.
         21    1    1    2  504  503  0.68171399628E+02  0.13431418506E+02  0.40715945779E+00  0.69483152700E+02  0.00000000000E+00 0.  1.
<mgrwt>
<rscale>  2 0.69481960E+02</rscale>
<asrwt>0</asrwt>
<pdfrwt beam="1">  1       21 0.18224902E-01 0.69481960E+02</pdfrwt>
<pdfrwt beam="2">  1       21 0.75368346E-02 0.69481960E+02</pdfrwt>
<totfact> 0.34919642E+06</totfact>
</mgrwt>
</event>
<event>
 4    1  0.9374408E+003  0.2173922E+02  0.7546771E-02  0.1712801E+00
         21   -1    0    0  502  501  0.00000000000E+00  0.00000000000E+00  0.61558000644E+01  0.61558000644E+01  0.00000000000E+00 0. -1.
         21   -1    0    0  504  502 -0.00000000000E+00 -0.00000000000E+00 -0.77124187269E+03  0.77124187269E+03  0.00000000000E+00 0. -1.
         21    1    1    2  503  501  0.76681328184E+01  0.20341913721E+02 -0.13697431137E+02  0.25694616839E+02  0.00000000000E+00 0. -1.
         21    1    1    2  504  503 -0.76681328184E+01 -0.20341913721E+02 -0.75138864149E+03  0.75170305592E+03  0.00000000000E+00 0. -1.
<mgrwt>
<rscale>  2 0.21739221E+02</rscale>
<asrwt>0</asrwt>
<pdfrwt beam="1">  1       21 0.94704655E-03 0.21739221E+02</pdfrwt>
<pdfrwt beam="2">  1       21 0.11865255E+00 0.21739221E+02</pdfrwt>
<totfact> 0.20322986E+06</totfact>
</mgrwt>
</event>
<event>
 4    1  0.9374408E+003  0.2154353E+02  0.7546771E-02  0.1716268E+00
         21   -1    0    0  502  501  0.00000000000E+00  0.00000000000E+00  0.18069800080E+02  0.18069800080E+02  0.00000000000E+00 0. -1.
         21   -1    0    0  503  502 -0.00000000000E+00 -0.00000000000E+00 -0.44787248379E+02  0.44787248379E+02  0.00000000000E+00 0. -1.
         21    1    1    2  503  504 -0.15537662488E+02 -0.14923293138E+02 -0.33883977517E+02  0.40152802717E+02  0.00000000000E+00 0. -1.
         21    1    1    2  504  501  0.15537662488E+02  0.14923293138E+02  0.71665292176E+01  0.22704245742E+02  0.00000000000E+00 0. -1.
<mgrwt>
<rscale>  2 0.21543529E+02</rscale>
<asrwt>0</asrwt>
<pdfrwt beam="1">  1       21 0.27799692E-02 0.21543529E+02</pdfrwt>
<pdfrwt beam="2">  1       21 0.68903459E-02 0.21543529E+02</pdfrwt>
<totfact> 0.75732386E+07</totfact>
</mgrwt>
</event>
<event>
 4    1  0.9374408E+003  0.4545968E+02  0.7546771E-02  0.1471492E+00
         21   -1    0    0  502  501  0.00000000000E+00  0.00000000000E+00  0.51481920225E+02  0.51481920225E+02  0.00000000000E+00 0.  1.
         21   -1    0    0  504  502 -0.00000000000E+00 -0.00000000000E+00 -0.80051925132E+02  0.80051925132E+02  0.00000000000E+00 0.  1.
         21    1    1    2  503  501 -0.33737167983E+00  0.45458425251E+02 -0.60721837834E+02  0.75853304713E+02  0.00000000000E+00 0.  1.
         21    1    1    2  504  503  0.33737167983E+00 -0.45458425251E+02  0.32151832926E+02  0.55680540645E+02  0.00000000000E+00 0.  1.
<mgrwt>
<rscale>  2 0.45459677E+02</rscale>
<asrwt>0</asrwt>
<pdfrwt beam="1">  1       21 0.79202954E-02 0.45459677E+02</pdfrwt>
<pdfrwt beam="2">  1       21 0.12315681E-01 0.45459677E+02</pdfrwt>
<totfact> 0.61696531E+06</totfact>
</mgrwt>
</event>
<event>
 4    1  0.9374408E+003  0.3160254E+02  0.7546771E-02  0.1581021E+00
         21   -1    0    0  504  501  0.00000000000E+00  0.00000000000E+00  0.22649439356E+02  0.22649439356E+02  0.00000000000E+00 0.  1.
         21   -1    0    0  501  502 -0.00000000000E+00 -0.00000000000E+00 -0.53258770767E+02  0.53258770767E+02  0.00000000000E+00 0.  1.
         21    1    1    2  503  502 -0.12504959022E+02 -0.29023210685E+02  0.43903605151E+00  0.31605593037E+02  0.00000000000E+00 0.  1.
         21    1    1    2  504  503  0.12504959022E+02  0.29023210685E+02 -0.31048367462E+02  0.44302617086E+02  0.00000000000E+00 0.  1.
<mgrwt>
<rscale>  2 0.31602544E+02</rscale>
<asrwt>0</asrwt>
<pdfrwt beam="1">  1       21 0.34845292E-02 0.31602544E+02</pdfrwt>
<pdfrwt beam="2">  1       21 0.81936569E-02 0.31602544E+02</pdfrwt>
<totfact> 0.44012825E+07</totfact>
</mgrwt>
</event>
<event>
 4    1  0.9374408E+003  0.2259539E+02  0.7546771E-02  0.1698154E+00
         21   -1    0    0  504  501  0.00000000000E+00  0.00000000000E+00  0.22532443139E+03  0.22532443139E+03  0.00000000000E+00 0.  1.
         21   -1    0    0  501  502 -0.00000000000E+00 -0.00000000000E+00 -0.43211250442E+01  0.43211250442E+01  0.00000000000E+00 0.  1.
         21    1    1    2  503  502 -0.14136935671E+02  0.17626652340E+02  0.31312738190E+02  0.38613979280E+02  0.00000000000E+00 0.  1.
         21    1    1    2  504  503  0.14136935671E+02 -0.17626652340E+02  0.18969056815E+03  0.19103157715E+03  0.00000000000E+00 0.  1.
<mgrwt>
<rscale>  2 0.22595394E+02</rscale>
<asrwt>0</asrwt>
<pdfrwt beam="1">  1       21 0.34665288E-01 0.22595394E+02</pdfrwt>
<pdfrwt beam="2">  1       21 0.66478864E-03 0.22595394E+02</pdfrwt>
<totfact> 0.42066744E+07</totfact>
</mgrwt>
</event>
<event>
 4    1  0.9374408E+003  0.4203166E+02  0.7546771E-02  0.1493771E+00
         21   -1    0    0  502  501  0.00000000000E+00  0.00000000000E+00  0.12320120819E+03  0.12320120819E+03  0.00000000000E+00 0.  1.
         21   -1    0    0  503  502 -0.00000000000E+00 -0.00000000000E+00 -0.19976695337E+02  0.19976695337E+02  0.00000000000E+00 0.  1.
         21    1    1    2  503  504 -0.15016741241E+02  0.39257585669E+02  0.89640867298E+02  0.99005785891E+02  0.00000000000E+00 0.  1.
         21    1    1    2  504  501  0.15016741241E+02 -0.39257585669E+02  0.13583645557E+02  0.44172117638E+02  0.00000000000E+00 0.  1.
<mgrwt>
<rscale>  2 0.42031661E+02</rscale>
<asrwt>0</asrwt>
<pdfrwt beam="1">  1       21 0.18954032E-01 0.42031661E+02</pdfrwt>
<pdfrwt beam="2">  1       21 0.30733378E-02 0.42031661E+02</pdfrwt>
<totfact> 0.13445738E+07</totfact>
</mgrwt>
</event>
<event>
 4    1  0.9374408E+003  0.3761112E+02  0.7546771E-02  0.1526565E+00
         21   -1    0    0  504  501  0.00000000000E+00  0.00000000000E+00  0.52813969015E+02  0.52813969015E+02  0.00000000000E+00 0. -1.
         21   -1    0    0  501  502 -0.00000000000E+00 -0.00000000000E+00 -0.12440432399E+03  0.12440432399E+03  0.00000000000E+00 0. -1.
         21    1    1    2  503  502 -0.17217721908E+02  0.33438699311E+02  0.42697617129E+02  0.56900642068E+02  0.00000000000E+00 0. -1.
         21    1    1    2  504  503  0.17217721908E+02 -0.33438699311E+02 -0.11428797210E+03  0.12031765093E+03  0.00000000000E+00 0. -1.
<mgrwt>
<rscale>  2 0.37611123E+02</rscale>
<asrwt>0</asrwt>
<pdfrwt beam="1">  1       21 0.81252261E-02 0.37611123E+02</pdfrwt>
<pdfrwt beam="2">  1       21 0.19139126E-01 0.37611123E+02</pdfrwt>
<totfact> 0.26859246E+06</totfact>
</mgrwt>
</event>
<event>
 4    1  0.9374408E+003  0.2099609E+02  0.7546771E-02  0.1726216E+00
         21   -1    0    0  502  501  0.00000000000E+00  0.00000000000E+00  0.93962157823E+01  0.93962157823E+01  0.00000000000E+00 0. -1.
         21   -1    0    0  503  502 -0.00000000000E+00 -0.00000000000E+00 -0.85255880643E+02  0.85255880643E+02  0.00000000000E+00 0. -1.
         21    1    1    2  503  504  0.17594935032E+02  0.11456611398E+02 -0.61931339661E+01  0.21890422377E+02  0.00000000000E+00 0.  1.
         21    1    1    2  504  501 -0.17594935032E+02 -0.11456611398E+02 -0.69666530895E+02  0.72761674049E+02  0.00000000000E+00 0.  1.
<mgrwt>
<rscale>  2 0.20996087E+02</rscale>
<asrwt>0</asrwt>
<pdfrwt beam="1">  1       21 0.14455716E-02 0.20996087E+02</pdfrwt>
<pdfrwt beam="2">  1       21 0.13116290E-01 0.20996087E+02</pdfrwt>
<totfact> 0.70971067E+07</totfact>
</mgrwt>
</event>
<event>
 4    1  0.9374408E+003  0.3116677E+02  0.7546771E-02  0.1585538E+00
         21   -1    0    0  502  501  0.00000000000E+00  0.00000000000E+00  0.56680080244E+02  0.56680080244E+02  0.00000000000E+00 0. -1.
         21   -1    0    0  504  502 -0.00000000000E+00 -0.00000000000E+00 -0.17445933975E+02  0.17445933975E+02  0.00000000000E+00 0. -1.
         21    1    1    2  503  501  0.29501666031E+02  0.10050844696E+02  0.14690847240E+02  0.34455605790E+02  0.00000000000E+00 0.  1.
         21    1    1    2  504  503 -0.29501666031E+02 -0.10050844696E+02  0.24543299028E+02  0.39670408429E+02  0.00000000000E+00 0.  1.
<mgrwt>
<rscale>  2 0.31166774E+02</rscale>
<asrwt>0</asrwt>
<pdfrwt beam="1">  1       21 0.87200123E-02 0.31166774E+02</pdfrwt>
<pdfrwt beam="2">  1       21 0.26839899E-02 0.31166774E+02</pdfrwt>
<totfact> 0.59728131E+07</totfact>
</mgrwt>
</event>
<event>
 4    1  0.9374408E+003  0.2321469E+02  0.7546771E-02  0.1688053E+00
         21   -1    0    0  504  501  0.00000000000E+00  0.00000000000E+00  0.50485361165E+01  0.50485361165E+01  0.00000000000E+00 0.  1.
         21   -1    0    0  501  502 -0.00000000000E+00 -0.00000000000E+00 -0.23000418964E+03  0.23000418964E+03  0.00000000000E+00 0.  1.
         21    1    1    2  503  502  0.11681600204E+02  0.20061460355E+02 -0.19851210068E+03  0.19986489459E+03  0.00000000000E+00 0.  1.
         21    1    1    2  504  503 -0.11681600204E+02 -0.20061460355E+02 -0.26443552844E+02  0.35187831162E+02  0.00000000000E+00 0.  1.
<mgrwt>
<rscale>  2 0.23214693E+02</rscale>
<asrwt>0</asrwt>
<pdfrwt beam="1">  1       21 0.77669785E-03 0.23214693E+02</pdfrwt>
<pdfrwt beam="2">  1       21 0.35385260E-01 0.23214693E+02</pdfrwt>
<totfact> 0.32327669E+07</totfact>
</mgrwt>
</event>
<event>
 4    1  0.9374408E+003  0.2041037E+02  0.7546771E-02  0.1737288E+00
         21   -1    0    0  504  501  0.00000000000E+00  0.00000000000E+00  0.13965763057E+03  0.13965763057E+03  0.00000000000E+00 0.  1.
         21   -1    0    0  501  502 -0.00000000000E+00 -0.00000000000E+00 -0.56584253122E+01  0.56584253122E+01  0.00000000000E+00 0.  1.
         21    1    1    2  503  502 -0.20129042838E+02 -0.33771261912E+01  0.11696175707E+03  0.11872925488E+03  0.00000000000E+00 0.  1.
         21    1    1    2  504  503  0.20129042838E+02  0.33771261912E+01  0.17037448186E+02  0.26586801003E+02  0.00000000000E+00 0.  1.
<mgrwt>
<rscale>  2 0.20410374E+02</rscale>
<asrwt>0</asrwt>
<pdfrwt beam="1">  1       21 0.21485787E-01 0.20410374E+02</pdfrwt>
<pdfrwt beam="2">  1       21 0.87052708E-03 0.20410374E+02</pdfrwt>
<totfact> 0.64804090E+07</totfact>
</mgrwt>
</event>
<event>
 4    1  0.9374408E+003  0.2094286E+02  0.7546771E-02  0.1727203E+00
         21   -1    0    0  502  501  0.00000000000E+00  0.00000000000E+00  0.36406995096E+02  0.36406995096E+02  0.00000000000E+00 0.  1.
         21   -1    0    0  504  502 -0.00000000000E+00 -0.00000000000E+00 -0.48056887228E+02  0.48056887228E+02  0.00000000000E+00 0.  1.
         21    1    1    2  503  501  0.20805990083E+02 -0.23904698136E+01 -0.42382127007E+02  0.47274181737E+02  0.00000000000E+00 0.  1.
         21    1    1    2  504  503 -0.20805990083E+02  0.23904698136E+01  0.30732234876E+02  0.37189700586E+02  0.00000000000E+00 0.  1.
<mgrwt>
<rscale>  2 0.20942864E+02</rscale>
<asrwt>0</asrwt>
<pdfrwt beam="1">  1       21 0.56010762E-02 0.20942864E+02</pdfrwt>
<pdfrwt beam="2">  1       21 0.73933672E-02 0.20942864E+02</pdfrwt>
<totfact> 0.22329457E+07</totfact>
</mgrwt>
</event>
<event>
 4    1  0.9374408E+003  0.2284480E+02  0.7546771E-02  0.1694038E+00
         21   -1    0    0  503  501  0.00000000000E+00  0.00000000000E+00  0.41138588686E+02  0.41138588686E+02  0.00000000000E+00 0. -1.
         21   -1    0    0  501  502 -0.00000000000E+00 -0.00000000000E+00 -0.14914359167E+02  0.14914359167E+02  0.00000000000E+00 0. -1.
         21    1    1    2  503  504  0.21869356783E+02  0.66042625128E+01  0.22789188970E+01  0.22958190712E+02  0.00000000000E+00 0.  1.
         21    1    1    2  504  502 -0.21869356783E+02 -0.66042625128E+01  0.23945310622E+02  0.33094757141E+02  0.00000000000E+00 0.  1.
<mgrwt>
<rscale>  2 0.22844804E+02</rscale>
<asrwt>0</asrwt>
<pdfrwt beam="1">  1       21 0.63290136E-02 0.22844804E+02</pdfrwt>
<pdfrwt beam="2">  1       21 0.22945168E-02 0.22844804E+02</pdfrwt>
<totfact> 0.11881591E+08</totfact>
</mgrwt>
</event>
<event>
 4    1  0.9374408E+003  0.2269454E+02  0.7546771E-02  0.1696510E+00
         21   -1    0    0  503  501  0.00000000000E+00  0.00000000000E+00  0.16727329521E+02  0.16727329521E+02  0.00000000000E+00 0. -1.
         21   -1    0    0  501  502 -0.00000000000E+00 -0.00000000000E+00 -0.55311113287E+02  0.55311113287E+02  0.00000000000E+00 0. -1.
         21    1    1    2  503  504  0.22367132291E+02 -0.38410456953E+01 -0.43274372545E+02  0.48864235982E+02  0.00000000000E+00 0.  1.
         21    1    1    2  504  502 -0.22367132291E+02  0.38410456953E+01  0.46905887784E+01  0.23174206826E+02  0.00000000000E+00 0.  1.
<mgrwt>
<rscale>  2 0.22694542E+02</rscale>
<asrwt>0</asrwt>
<pdfrwt beam="1">  1       21 0.25734353E-02 0.22694542E+02</pdfrwt>
<pdfrwt beam="2">  1       21 0.85094019E-02 0.22694542E+02</pdfrwt>
<totfact> 0.61438505E+07</totfact>
</mgrwt>
</event>
<event>
 4    1  0.9374408E+003  0.2718124E+02  0.7546771E-02  0.1631514E+00
         21   -1    0    0  502  501  0.00000000000E+00  0.00000000000E+00  0.44415760741E+00  0.44415760741E+00  0.00000000000E+00 0. -1.
         21   -1    0    0  503  502 -0.00000000000E+00 -0.00000000000E+00 -0.20362478527E+04  0.20362478527E+04  0.00000000000E+00 0. -1.
         21    1    1    2  503  504  0.27027123593E+02  0.28903626493E+01 -0.14536500305E+04  0.14539041339E+04  0.00000000000E+00 0.  1.
         21    1    1    2  504  501 -0.27027123593E+02 -0.28903626493E+01 -0.58215366469E+03  0.58278787643E+03  0.00000000000E+00 0.  1.
<mgrwt>
<rscale>  2 0.27181236E+02</rscale>
<asrwt>0</asrwt>
<pdfrwt beam="1">  1       21 0.68330436E-04 0.27181236E+02</pdfrwt>
<pdfrwt beam="2">  1       21 0.31327579E+00 0.27181236E+02</pdfrwt>
<totfact> 0.72014428E+06</totfact>
</mgrwt>
</event>
<event>
 4    1  0.9374408E+003  0.2534452E+02  0.7546771E-02  0.1656102E+00
         21   -1    0    0  502  501  0.00000000000E+00  0.00000000000E+00  0.38266645621E+01  0.38266645621E+01  0.00000000000E+00 0. -1.
         21   -1    0    0  504  502 -0.00000000000E+00 -0.00000000000E+00 -0.25505862435E+03  0.25505862435E+03  0.00000000000E+00 0. -1.
         21    1    1    2  503  501  0.25044881596E+02  0.38856700159E+01 -0.20130132379E+03  0.20289053080E+03  0.00000000000E+00 0. -1.
         21    1    1    2  504  503 -0.25044881596E+02 -0.38856700159E+01 -0.49930635992E+02  0.55994758113E+02  0.00000000000E+00 0. -1.
<mgrwt>
<rscale>  2 0.25344517E+02</rscale>
<asrwt>0</asrwt>
<pdfrwt beam="1">  1       21 0.58871769E-03 0.25344517E+02</pdfrwt>
<pdfrwt beam="2">  1       21 0.39239784E-01 0.25344517E+02</pdfrwt>
<totfact> 0.41041537E+07</totfact>
</mgrwt>
</event>
<event>
 4    1  0.9374408E+003  0.2688950E+02  0.7546771E-02  0.1635257E+00
         21   -1    0    0  503  501  0.00000000000E+00  0.00000000000E+00  0.77359946394E+02  0.77359946394E+02  0.00000000000E+00 0.  1.
         21   -1    0    0  501  502 -0.00000000000E+00 -0.00000000000E+00 -0.21518148869E+02  0.21518148869E+02  0.00000000000E+00 0.  1.
         21    1    1    2  503  504 -0.64065022993E+01 -0.26115165633E+02 -0.92619153628E+01  0.28439905484E+02  0.00000000000E+00 0.  1.
         21    1    1    2  504  502  0.64065022993E+01  0.26115165633E+02  0.65103712887E+02  0.70438189779E+02  0.00000000000E+00 0.  1.
<mgrwt>
<rscale>  2 0.26889499E+02</rscale>
<asrwt>0</asrwt>
<pdfrwt beam="1">  1       21 0.11901530E-01 0.26889499E+02</pdfrwt>
<pdfrwt beam="2">  1       21 0.33104845E-02 0.26889499E+02</pdfrwt>
<totfact> 0.24741087E+07</totfact>
</mgrwt>
</event>
<event>
 4    1  0.9374408E+003  0.2242888E+02  0.7546771E-02  0.1700939E+00
         21   -1    0    0  502  501  0.00000000000E+00  0.00000000000E+00  0.35616184923E+02  0.35616184923E+02  0.00000000000E+00 0.  1.
         21   -1    0    0  503  502 -0.00000000000E+00 -0.00000000000E+00 -0.22933156232E+02  0.22933156232E+02  0.00000000000E+00 0.  1.
         21    1    1    2  503  504  0.10602247756E+02 -0.19764789201E+02 -0.11801910139E+02  0.25344420147E+02  0.00000000000E+00 0.  1.
         21    1    1    2  504  501 -0.10602247756E+02  0.19764789201E+02  0.24484938830E+02  0.33204921008E+02  0.00000000000E+00 0.  1.
<mgrwt>
<rscale>  2 0.22428878E+02</rscale>
<asrwt>0</asrwt>
<pdfrwt beam="1">  1       21 0.54794131E-02 0.22428878E+02</pdfrwt>
<pdfrwt beam="2">  1       21 0.35281779E-02 0.22428878E+02</pdfrwt>
<totfact> 0.76337040E+07</totfact>
</mgrwt>
</event>
<event>
 4    1  0.9374408E+003  0.2787884E+02  0.7546771E-02  0.1622793E+00
         21   -1    0    0  502  501  0.00000000000E+00  0.00000000000E+00  0.49199146332E+02  0.49199146332E+02  0.00000000000E+00 0. -1.
         21   -1    0    0  504  502 -0.00000000000E+00 -0.00000000000E+00 -0.34208032124E+02  0.34208032124E+02  0.00000000000E+00 0. -1.
         21    1    1    2  503  501  0.78336076638E+01 -0.26755638966E+02  0.38089897476E+02  0.47202435480E+02  0.00000000000E+00 0. -1.
         21    1    1    2  504  503 -0.78336076638E+01  0.26755638966E+02 -0.23098783268E+02  0.36204742976E+02  0.00000000000E+00 0. -1.
<mgrwt>
<rscale>  2 0.27878838E+02</rscale>
<asrwt>0</asrwt>
<pdfrwt beam="1">  1       21 0.75690994E-02 0.27878838E+02</pdfrwt>
<pdfrwt beam="2">  1       21 0.52627742E-02 0.27878838E+02</pdfrwt>
<totfact> 0.25298622E+07</totfact>
</mgrwt>
</event>
<event>
 4    1  0.9374408E+003  0.2661479E+02  0.7546771E-02  0.1638836E+00
         21   -1    0    0  503  501  0.00000000000E+00  0.00000000000E+00  0.14526355817E+03  0.14526355817E+03  0.00000000000E+00 0. -1.
         21   -1    0    0  501  502 -0.00000000000E+00 -0.00000000000E+00 -0.13309243563E+02  0.13309243563E+02  0.00000000000E+00 0. -1.
         21    1    1    2  503  504 -0.26433238706E+02 -0.31033586250E+01  0.28651601013E+01  0.26768565252E+02  0.00000000000E+00 0. -1.
         21    1    1    2  504  502  0.26433238706E+02  0.31033586250E+01  0.12908915450E+03  0.13180423648E+03  0.00000000000E+00 0. -1.
<mgrwt>
<rscale>  2 0.26614788E+02</rscale>
<asrwt>0</asrwt>
<pdfrwt beam="1">  1       21 0.22348239E-01 0.26614788E+02</pdfrwt>
<pdfrwt beam="2">  1       21 0.20475760E-02 0.26614788E+02</pdfrwt>
<totfact> 0.17586046E+07</totfact>
</mgrwt>
</event>
<event>
 4    1  0.9374408E+003  0.2051232E+02  0.7546771E-02  0.1735328E+00
         21   -1    0    0  502  501  0.00000000000E+00  0.00000000000E+00  0.11118811524E+02  0.11118811524E+02  0.00000000000E+00 0.  1.
         21   -1    0    0  504  502 -0.00000000000E+00 -0.00000000000E+00 -0.76591035857E+02  0.76591035857E+02  0.00000000000E+00 0.  1.
         21    1    1    2  503  501 -0.17886420890E+02  0.10041470198E+02 -0.15428141127E+01  0.20570256474E+02  0.00000000000E+00 0. -1.
         21    1    1    2  504  503  0.17886420890E+02 -0.10041470198E+02 -0.63929410221E+02  0.67139590907E+02  0.00000000000E+00 0. -1.
<mgrwt>
<rscale>  2 0.20512318E+02</rscale>
<asrwt>0</asrwt>
<pdfrwt beam="1">  1       21 0.17105863E-02 0.20512318E+02</pdfrwt>
<pdfrwt beam="2">  1       21 0.11783237E-01 0.20512318E+02</pdfrwt>
<totfact> 0.65347029E+07</totfact>
</mgrwt>
</event>
<event>
 4    1  0.9374408E+003  0.2266335E+02  0.7546771E-02  0.1697026E+00
         21   -1    0    0  504  501  0.00000000000E+00  0.00000000000E+00  0.81073854572E+01  0.81073854572E+01  0.00000000000E+00 0.  1.
         21   -1    0    0  501  502 -0.00000000000E+00 -0.00000000000E+00 -0.78508285011E+02  0.78508285011E+02  0.00000000000E+00 0.  1.
         21    1    1    2  503  502  0.39921564538E+01  0.22308965564E+02 -0.54228341286E+02  0.58773635725E+02  0.00000000000E+00 0. -1.
         21    1    1    2  504  503 -0.39921564538E+01 -0.22308965564E+02 -0.16172558267E+02  0.27842034743E+02  0.00000000000E+00 0. -1.
<mgrwt>
<rscale>  2 0.22663346E+02</rscale>
<asrwt>0</asrwt>
<pdfrwt beam="1">  1       21 0.12472901E-02 0.22663346E+02</pdfrwt>
<pdfrwt beam="2">  1       21 0.12078198E-01 0.22663346E+02</pdfrwt>
<totfact> 0.10405961E+08</totfact>
</mgrwt>
</event>
<event>
 4    1  0.9374408E+003  0.4891190E+02  0.7546771E-02  0.1451300E+00
         21   -1    0    0  502  501  0.00000000000E+00  0.00000000000E+00  0.25742450040E+03  0.25742450040E+03  0.00000000000E+00 0.  1.
         21   -1    0    0  504  502 -0.00000000000E+00 -0.00000000000E+00 -0.14667095143E+02  0.14667095143E+02  0.00000000000E+00 0.  1.
         21    1    1    2  503  501 -0.48591474096E+02 -0.55895513080E+01  0.39032121474E+02  0.62577000131E+02  0.00000000000E+00 0. -1.
         21    1    1    2  504  503  0.48591474096E+02  0.55895513080E+01  0.20372528378E+03  0.20951459541E+03  0.00000000000E+00 0. -1.
<mgrwt>
<rscale>  2 0.48911905E+02</rscale>
<asrwt>0</asrwt>
<pdfrwt beam="1">  1       21 0.39603766E-01 0.48911905E+02</pdfrwt>
<pdfrwt beam="2">  1       21 0.22564764E-02 0.48911905E+02</pdfrwt>
<totfact> 0.57086205E+06</totfact>
</mgrwt>
</event>
<event>
 4    1  0.9374408E+003  0.3181264E+02  0.7546771E-02  0.1578875E+00
         21   -1    0    0  504  501  0.00000000000E+00  0.00000000000E+00  0.20372623428E+03  0.20372623428E+03  0.00000000000E+00 0.  1.
         21   -1    0    0  501  502 -0.00000000000E+00 -0.00000000000E+00 -0.89972596100E+01  0.89972596100E+01  0.00000000000E+00 0.  1.
         21    1    1    2  503  502  0.25576451424E+02  0.18917961091E+02  0.26184009505E+02  0.41202505665E+02  0.00000000000E+00 0.  1.
         21    1    1    2  504  503 -0.25576451424E+02 -0.18917961091E+02  0.16854496517E+03  0.17152098823E+03  0.00000000000E+00 0.  1.
<mgrwt>
<rscale>  2 0.31812641E+02</rscale>
<asrwt>0</asrwt>
<pdfrwt beam="1">  1       21 0.31342494E-01 0.31812641E+02</pdfrwt>
<pdfrwt beam="2">  1       21 0.13841939E-02 0.31812641E+02</pdfrwt>
<totfact> 0.17973614E+07</totfact>
</mgrwt>
</event>
<event>
 4    1  0.9374408E+003  0.2131866E+02  0.7546771E-02  0.1720309E+00
         21   -1    0    0  503  501  0.00000000000E+00  0.00000000000E+00  0.33469153894E+03  0.33469153894E+03  0.00000000000E+00 0.  1.
         21   -1    0    0  501  502 -0.00000000000E+00 -0.00000000000E+00 -0.15035660935E+01  0.15035660935E+01  0.00000000000E+00 0.  1.
         21    1    1    2  503  504 -0.16767828941E+02 -0.13165302035E+02  0.11427667669E+03  0.11624820042E+03  0.00000000000E+00 0.  1.
         21    1    1    2  504  502  0.16767828941E+02  0.13165302035E+02  0.21891129616E+03  0.21994690462E+03  0.00000000000E+00 0.  1.
<mgrwt>
<rscale>  2 0.21318660E+02</rscale>
<asrwt>0</asrwt>
<pdfrwt beam="1">  1       21 0.51490947E-01 0.21318660E+02</pdfrwt>
<pdfrwt beam="2">  1       21 0.23131813E-03 0.21318660E+02</pdfrwt>
<totfact> 0.91883014E+07</totfact>
</mgrwt>
</event>
<event>
 4    1  0.9374408E+003  0.2065338E+02  0.7546771E-02  0.1732638E+00
         21   -1    0    0  502  501  0.00000000000E+00  0.00000000000E+00  0.21383603969E+03  0.21383603969E+03  0.00000000000E+00 0.  1.
         21   -1    0    0  503  502 -0.00000000000E+00 -0.00000000000E+00 -0.51943893454E+01  0.51943893454E+01  0.00000000000E+00 0.  1.
         21    1    1    2  503  504 -0.53035699726E+01 -0.19960817022E+02  0.19027237545E+03  0.19139001785E+03  0.00000000000E+00 0.  1.
         21    1    1    2  504  501  0.53035699726E+01  0.19960817022E+02  0.18369274890E+02  0.27640411187E+02  0.00000000000E+00 0.  1.
<mgrwt>
<rscale>  2 0.20653379E+02</rscale>
<asrwt>0</asrwt>
<pdfrwt beam="1">  1       21 0.32897845E-01 0.20653379E+02</pdfrwt>
<pdfrwt beam="2">  1       21 0.79913699E-03 0.20653379E+02</pdfrwt>
<totfact> 0.34486645E+07</totfact>
</mgrwt>
</event>
<event>
 4    1  0.9374408E+003  0.2079940E+02  0.7546771E-02  0.1729883E+00
         21   -1    0    0  502  501  0.00000000000E+00  0.00000000000E+00  0.50058078170E+02  0.50058078170E+02  0.00000000000E+00 0.  1.
         21   -1    0    0  504  502 -0.00000000000E+00 -0.00000000000E+00 -0.89575505373E+01  0.89575505373E+01  0.00000000000E+00 0.  1.
         21    1    1    2  503  501  0.20503811213E+02  0.34941219785E+01  0.15014282319E+02  0.25652365120E+02  0.00000000000E+00 0.  1.
         21    1    1    2  504  503 -0.20503811213E+02 -0.34941219785E+01  0.26086245313E+02  0.33363263588E+02  0.00000000000E+00 0.  1.
<mgrwt>
<rscale>  2 0.20799403E+02</rscale>
<asrwt>0</asrwt>
<pdfrwt beam="1">  1       21 0.77012426E-02 0.20799403E+02</pdfrwt>
<pdfrwt beam="2">  1       21 0.13780847E-02 0.20799403E+02</pdfrwt>
<totfact> 0.18302178E+08</totfact>
</mgrwt>
</event>
<event>
 4    1  0.9374408E+003  0.2414423E+02  0.7546771E-02  0.1673607E+00
         21   -1    0    0  503  501  0.00000000000E+00  0.00000000000E+00  0.12451973299E+03  0.12451973299E+03  0.00000000000E+00 0. -1.
         21   -1    0    0  501  502 -0.00000000000E+00 -0.00000000000E+00 -0.13215021700E+02  0.13215021700E+02  0.00000000000E+00 0. -1.
         21    1    1    2  503  504  0.86492643506E+01  0.22541829914E+02  0.31189320480E+00  0.24146244989E+02  0.00000000000E+00 0.  1.
         21    1    1    2  504  502 -0.86492643506E+01 -0.22541829914E+02  0.11099281808E+03  0.11358850970E+03  0.00000000000E+00 0.  1.
<mgrwt>
<rscale>  2 0.24144231E+02</rscale>
<asrwt>0</asrwt>
<pdfrwt beam="1">  1       21 0.19156881E-01 0.24144231E+02</pdfrwt>
<pdfrwt beam="2">  1       21 0.20330803E-02 0.24144231E+02</pdfrwt>
<totfact> 0.22859118E+07</totfact>
</mgrwt>
</event>
<event>
 4    1  0.9374408E+003  0.1100862E+03  0.7546771E-02  0.1260410E+00
         21   -1    0    0  502  501  0.00000000000E+00  0.00000000000E+00  0.49926565348E+02  0.49926565348E+02  0.00000000000E+00 0.  1.
         21   -1    0    0  503  502 -0.00000000000E+00 -0.00000000000E+00 -0.29869464167E+03  0.29869464167E+03  0.00000000000E+00 0.  1.
         21    1    1    2  503  504  0.60410295918E+02 -0.92030244290E+02 -0.19983140116E+03  0.22814810673E+03  0.00000000000E+00 0.  1.
         21    1    1    2  504  501 -0.60410295918E+02  0.92030244290E+02 -0.48936675168E+02  0.12047310029E+03  0.00000000000E+00 0.  1.
<mgrwt>
<rscale>  2 0.11008619E+03</rscale>
<asrwt>0</asrwt>
<pdfrwt beam="1">  1       21 0.76810100E-02 0.11008619E+03</pdfrwt>
<pdfrwt beam="2">  1       21 0.45953022E-01 0.11008619E+03</pdfrwt>
<totfact> 0.58922033E+05</totfact>
</mgrwt>
</event>
<event>
 4    1  0.9374408E+003  0.2362077E+02  0.7546771E-02  0.1681641E+00
         21   -1    0    0  503  501  0.00000000000E+00  0.00000000000E+00  0.14379462218E+03  0.14379462218E+03  0.00000000000E+00 0. -1.
         21   -1    0    0  501  502 -0.00000000000E+00 -0.00000000000E+00 -0.11443400860E+02  0.11443400860E+02  0.00000000000E+00 0. -1.
         21    1    1    2  503  504  0.13068834828E+02  0.19676033254E+02  0.12927797013E+03  0.13141816575E+03  0.00000000000E+00 0. -1.
         21    1    1    2  504  502 -0.13068834828E+02 -0.19676033254E+02  0.30732511881E+01  0.23819857288E+02  0.00000000000E+00 0. -1.
<mgrwt>
<rscale>  2 0.23620769E+02</rscale>
<asrwt>0</asrwt>
<pdfrwt beam="1">  1       21 0.22122248E-01 0.23620769E+02</pdfrwt>
<pdfrwt beam="2">  1       21 0.17605233E-02 0.23620769E+02</pdfrwt>
<totfact> 0.22043597E+07</totfact>
</mgrwt>
</event>
<event>
 4    1  0.9374408E+003  0.2325153E+02  0.7546771E-02  0.1687465E+00
         21   -1    0    0  503  501  0.00000000000E+00  0.00000000000E+00  0.89859587234E+02  0.89859587234E+02  0.00000000000E+00 0. -1.
         21   -1    0    0  501  502 -0.00000000000E+00 -0.00000000000E+00 -0.32341214753E+02  0.32341214753E+02  0.00000000000E+00 0. -1.
         21    1    1    2  503  504 -0.62390914789E+01  0.22398827670E+02 -0.26365778749E+02  0.35153776931E+02  0.00000000000E+00 0.  1.
         21    1    1    2  504  502  0.62390914789E+01 -0.22398827670E+02  0.83884151230E+02  0.87047025056E+02  0.00000000000E+00 0.  1.
<mgrwt>
<rscale>  2 0.23251532E+02</rscale>
<asrwt>0</asrwt>
<pdfrwt beam="1">  1       21 0.13824552E-01 0.23251532E+02</pdfrwt>
<pdfrwt beam="2">  1       21 0.49755715E-02 0.23251532E+02</pdfrwt>
<totfact> 0.97972174E+06</totfact>
</mgrwt>
</event>
<event>
 4    1  0.9374408E+003  0.4679853E+02  0.7546771E-02  0.1463416E+00
         21   -1    0    0  502  501  0.00000000000E+00  0.00000000000E+00  0.18266928228E+03  0.18266928228E+03  0.00000000000E+00 0. -1.
         21   -1    0    0  504  502 -0.00000000000E+00 -0.00000000000E+00 -0.15867237534E+02  0.15867237534E+02  0.00000000000E+00 0. -1.
         21    1    1    2  503  501  0.17474644000E+02 -0.43413580583E+02  0.34326917640E+02  0.58038258388E+02  0.00000000000E+00 0.  1.
         21    1    1    2  504  503 -0.17474644000E+02  0.43413580583E+02  0.13247512710E+03  0.14049826142E+03  0.00000000000E+00 0.  1.
<mgrwt>
<rscale>  2 0.46798527E+02</rscale>
<asrwt>0</asrwt>
<pdfrwt beam="1">  1       21 0.28102965E-01 0.46798527E+02</pdfrwt>
<pdfrwt beam="2">  1       21 0.24411136E-02 0.46798527E+02</pdfrwt>
<totfact> 0.96118511E+06</totfact>
</mgrwt>
</event>
<event>
 4    1  0.9374408E+003  0.2130087E+02  0.7546771E-02  0.1720631E+00
         21   -1    0    0  504  501  0.00000000000E+00  0.00000000000E+00  0.80602734166E+02  0.80602734166E+02  0.00000000000E+00 0. -1.
         21   -1    0    0  501  502 -0.00000000000E+00 -0.00000000000E+00 -0.64029952499E+01  0.64029952499E+01  0.00000000000E+00 0. -1.
         21    1    1    2  503  502  0.21286138306E+02  0.79211707501E+00  0.52223131797E+02  0.56400200603E+02  0.00000000000E+00 0.  1.
         21    1    1    2  504  503 -0.21286138306E+02 -0.79211707501E+00  0.21976607119E+02  0.30605528812E+02  0.00000000000E+00 0.  1.
<mgrwt>
<rscale>  2 0.21300872E+02</rscale>
<asrwt>0</asrwt>
<pdfrwt beam="1">  1       21 0.12400420E-01 0.21300872E+02</pdfrwt>
<pdfrwt beam="2">  1       21 0.98507625E-03 0.21300872E+02</pdfrwt>
<totfact> 0.13944965E+08</totfact>
</mgrwt>
</event>
<event>
 4    1  0.9374408E+003  0.3631349E+02  0.7546771E-02  0.1537237E+00
         21   -1    0    0  503  501  0.00000000000E+00  0.00000000000E+00  0.18001598351E+02  0.18001598351E+02  0.00000000000E+00 0. -1.
         21   -1    0    0  501  502 -0.00000000000E+00 -0.00000000000E+00 -0.82618478487E+02  0.82618478487E+02  0.00000000000E+00 0. -1.
         21    1    1    2  503  504 -0.35641635807E+02  0.69529159571E+01 -0.15369610095E+02  0.39432146249E+02  0.00000000000E+00 0.  1.
         21    1    1    2  504  502  0.35641635807E+02 -0.69529159571E+01 -0.49247270041E+02  0.61187930589E+02  0.00000000000E+00 0.  1.
<mgrwt>
<rscale>  2 0.36313486E+02</rscale>
<asrwt>0</asrwt>
<pdfrwt beam="1">  1       21 0.27694767E-02 0.36313486E+02</pdfrwt>
<pdfrwt beam="2">  1       21 0.12710535E-01 0.36313486E+02</pdfrwt>
<totfact> 0.31085851E+07</totfact>
</mgrwt>
</event>
<event>
 4    1  0.9374408E+003  0.2573486E+02  0.7546771E-02  0.1650666E+00
         21   -1    0    0  504  501  0.00000000000E+00  0.00000000000E+00  0.31503956981E+02  0.31503956981E+02  0.00000000000E+00 0. -1.
         21   -1    0    0  501  502 -0.00000000000E+00 -0.00000000000E+00 -0.34617107312E+02  0.34617107312E+02  0.00000000000E+00 0. -1.
         21    1    1    2  503  502 -0.15530341722E+02  0.20520516195E+02  0.19161636540E+02  0.32085065276E+02  0.00000000000E+00 0.  1.
         21    1    1    2  504  503  0.15530341722E+02 -0.20520516195E+02 -0.22274786870E+02  0.34035999016E+02  0.00000000000E+00 0.  1.
<mgrwt>
<rscale>  2 0.25734862E+02</rscale>
<asrwt>0</asrwt>
<pdfrwt beam="1">  1       21 0.48467626E-02 0.25734862E+02</pdfrwt>
<pdfrwt beam="2">  1       21 0.53257088E-02 0.25734862E+02</pdfrwt>
<totfact> 0.50127718E+07</totfact>
</mgrwt>
</event>
<event>
 4    1  0.9374408E+003  0.2435236E+02  0.7546771E-02  0.1670482E+00
         21   -1    0    0  504  501  0.00000000000E+00  0.00000000000E+00  0.41647984384E+02  0.41647984384E+02  0.00000000000E+00 0. -1.
         21   -1    0    0  501  502 -0.00000000000E+00 -0.00000000000E+00 -0.20078426776E+02  0.20078426776E+02  0.00000000000E+00 0. -1.
         21    1    1    2  503  502 -0.17542448284E+02  0.16890827487E+02 -0.58589518237E+01  0.25047252573E+02  0.00000000000E+00 0.  1.
         21    1    1    2  504  503  0.17542448284E+02 -0.16890827487E+02  0.27428509432E+02  0.36679158587E+02  0.00000000000E+00 0.  1.
<mgrwt>
<rscale>  2 0.24352362E+02</rscale>
<asrwt>0</asrwt>
<pdfrwt beam="1">  1       21 0.64073822E-02 0.24352362E+02</pdfrwt>
<pdfrwt beam="2">  1       21 0.30889887E-02 0.24352362E+02</pdfrwt>
<totfact> 0.74780197E+07</totfact>
</mgrwt>
</event>
<event>
 4    1  0.9374408E+003  0.2538011E+02  0.7546771E-02  0.1655602E+00
         21   -1    0    0  504  501  0.00000000000E+00  0.00000000000E+00  0.23399986843E+02  0.23399986843E+02  0.00000000000E+00 0.  1.
         21   -1    0    0  501  502 -0.00000000000E+00 -0.00000000000E+00 -0.30754743289E+02  0.30754743289E+02  0.00000000000E+00 0.  1.
         21    1    1    2  503  502  0.88348368137E+01  0.23792759375E+02  0.50935834800E+01  0.25886180345E+02  0.00000000000E+00 0.  1.
         21    1    1    2  504  503 -0.88348368137E+01 -0.23792759375E+02 -0.12448339926E+02  0.28268549788E+02  0.00000000000E+00 0.  1.
<mgrwt>
<rscale>  2 0.25380105E+02</rscale>
<asrwt>0</asrwt>
<pdfrwt beam="1">  1       21 0.35999980E-02 0.25380105E+02</pdfrwt>
<pdfrwt beam="2">  1       21 0.47314990E-02 0.25380105E+02</pdfrwt>
<totfact> 0.96708392E+07</totfact>
</mgrwt>
</event>
<event>
 4    1  0.9374408E+003  0.2686683E+02  0.7546771E-02  0.1635550E+00
         21   -1    0    0  502  501  0.00000000000E+00  0.00000000000E+00  0.39336672164E+02  0.39336672164E+02  0.00000000000E+00 0. -1.
         21   -1    0    0  504  502 -0.00000000000E+00 -0.00000000000E+00 -0.25804119989E+02  0.25804119989E+02  0.00000000000E+00 0. -1.
         21    1    1    2  503  501  0.18587804751E+02 -0.19398976169E+02 -0.10739346916E+02  0.28933723128E+02  0.00000000000E+00 0.  1.
         21    1    1    2  504  503 -0.18587804751E+02  0.19398976169E+02  0.24271899091E+02  0.36207069025E+02  0.00000000000E+00 0.  1.
<mgrwt>
<rscale>  2 0.26866834E+02</rscale>
<asrwt>0</asrwt>
<pdfrwt beam="1">  1       21 0.60517957E-02 0.26866834E+02</pdfrwt>
<pdfrwt beam="2">  1       21 0.39698646E-02 0.26866834E+02</pdfrwt>
<totfact> 0.56630923E+07</totfact>
</mgrwt>
</event>
<event>
 4    1  0.9374408E+003  0.3348331E+02  0.7546771E-02  0.1562497E+00
         21   -1    0    0  502  501  0.00000000000E+00  0.00000000000E+00  0.41980327425E+01  0.41980327425E+01  0.00000000000E+00 0.  1.
         21   -1    0    0  504  502 -0.00000000000E+00 -0.00000000000E+00 -0.43839760868E+03  0.43839760868E+03  0.00000000000E+00 0.  1.
         21    1    1    2  503  501  0.17623504986E+02  0.28470051531E+02 -0.35544618344E+03  0.35701977688E+03  0.00000000000E+00 0.  1.
         21    1    1    2  504  503 -0.17623504986E+02 -0.28470051531E+02 -0.78753392502E+02  0.85575864546E+02  0.00000000000E+00 0.  1.
<mgrwt>
<rscale>  2 0.33483306E+02</rscale>
<asrwt>0</asrwt>
<pdfrwt beam="1">  1       21 0.64585143E-03 0.33483306E+02</pdfrwt>
<pdfrwt beam="2">  1       21 0.67445761E-01 0.33483306E+02</pdfrwt>
<totfact> 0.12901725E+07</totfact>
</mgrwt>
</event>
<event>
 4    1  0.9374408E+003  0.2463875E+02  0.7546771E-02  0.1666246E+00
         21   -1    0    0  502  501  0.00000000000E+00  0.00000000000E+00  0.88047221666E+02  0.88047221666E+02  0.00000000000E+00 0.  1.
         21   -1    0    0  503  502 -0.00000000000E+00 -0.00000000000E+00 -0.22030250463E+02  0.22030250463E+02  0.00000000000E+00 0.  1.
         21    1    1    2  503  504 -0.15163276323E+02 -0.19420168517E+02 -0.12611634554E+02  0.27678894852E+02  0.00000000000E+00 0.  1.
         21    1    1    2  504  501  0.15163276323E+02  0.19420168517E+02  0.78628605757E+02  0.82398577278E+02  0.00000000000E+00 0.  1.
<mgrwt>
<rscale>  2 0.24638748E+02</rscale>
<asrwt>0</asrwt>
<pdfrwt beam="1">  1       21 0.13545726E-01 0.24638748E+02</pdfrwt>
<pdfrwt beam="2">  1       21 0.33892694E-02 0.24638748E+02</pdfrwt>
<totfact> 0.18823027E+07</totfact>
</mgrwt>
</event>
<event>
 4    1  0.9374408E+003  0.4464697E+02  0.7546771E-02  0.1476558E+00
         21   -1    0    0  504  501  0.00000000000E+00  0.00000000000E+00  0.39838054561E+02  0.39838054561E+02  0.00000000000E+00 0.  1.
         21   -1    0    0  501  502 -0.00000000000E+00 -0.00000000000E+00 -0.83479546806E+02  0.83479546806E+02  0.00000000000E+00 0.  1.
         21    1    1    2  503  502  0.94963049947E+01 -0.43625362936E+02  0.17205674309E+02  0.47847542552E+02  0.00000000000E+00 0.  1.
         21    1    1    2  504  503 -0.94963049947E+01  0.43625362936E+02 -0.60847166555E+02  0.75470058815E+02  0.00000000000E+00 0.  1.
<mgrwt>
<rscale>  2 0.44646972E+02</rscale>
<asrwt>0</asrwt>
<pdfrwt beam="1">  1       21 0.61289315E-02 0.44646972E+02</pdfrwt>
<pdfrwt beam="2">  1       21 0.12843007E-01 0.44646972E+02</pdfrwt>
<totfact> 0.87658890E+06</totfact>
</mgrwt>
</event>
<event>
 4    1  0.9374408E+003  0.2053669E+02  0.7546771E-02  0.1734861E+00
         21   -1    0    0  502  501  0.00000000000E+00  0.00000000000E+00  0.40301530931E+02  0.40301530931E+02  0.00000000000E+00 0.  1.
         21   -1    0    0  504  502 -0.00000000000E+00 -0.00000000000E+00 -0.19534482474E+02  0.19534482474E+02  0.00000000000E+00 0.  1.
         21    1    1    2  503  501 -0.23320280391E+01 -0.20403854191E+02 -0.10002047404E+02  0.22842867002E+02  0.00000000000E+00 0.  1.
         21    1    1    2  504  503  0.23320280391E+01  0.20403854191E+02  0.30769095861E+02  0.36993146402E+02  0.00000000000E+00 0.  1.
<mgrwt>
<rscale>  2 0.20536690E+02</rscale>
<asrwt>0</asrwt>
<pdfrwt beam="1">  1       21 0.62002355E-02 0.20536690E+02</pdfrwt>
<pdfrwt beam="2">  1       21 0.30053050E-02 0.20536690E+02</pdfrwt>
<totfact> 0.78459426E+07</totfact>
</mgrwt>
</event>
<event>
 4    1  0.9374408E+003  0.2031477E+02  0.7546771E-02  0.1739140E+00
         21   -1    0    0  502  501  0.00000000000E+00  0.00000000000E+00  0.13239259455E+03  0.13239259455E+03  0.00000000000E+00 0.  1.
         21   -1    0    0  503  502 -0.00000000000E+00 -0.00000000000E+00 -0.37266125713E+01  0.37266125713E+01  0.00000000000E+00 0.  1.
         21    1    1    2  503  504  0.63352734292E+01 -0.19301659279E+02  0.36809723681E+02  0.42043376384E+02  0.00000000000E+00 0.  1.
         21    1    1    2  504  501 -0.63352734292E+01  0.19301659279E+02  0.91856258297E+02  0.94075830736E+02  0.00000000000E+00 0.  1.
<mgrwt>
<rscale>  2 0.20314767E+02</rscale>
<asrwt>0</asrwt>
<pdfrwt beam="1">  1       21 0.20368088E-01 0.20314767E+02</pdfrwt>
<pdfrwt beam="2">  1       21 0.57332511E-03 0.20314767E+02</pdfrwt>
<totfact> 0.13188004E+08</totfact>
</mgrwt>
</event>
<event>
 4    1  0.9374408E+003  0.2031411E+02  0.7546771E-02  0.1739153E+00
         21   -1    0    0  503  501  0.00000000000E+00  0.00000000000E+00  0.49285841707E+01  0.49285841707E+01  0.00000000000E+00 0.  1.
         21   -1    0    0  501  502 -0.00000000000E+00 -0.00000000000E+00 -0.90320692990E+02  0.90320692990E+02  0.00000000000E+00 0.  1.
         21    1    1    2  503  504 -0.12415863411E+02 -0.16078223468E+02 -0.55562340083E+02  0.59159416576E+02  0.00000000000E+00 0.  1.
         21    1    1    2  504  502  0.12415863411E+02  0.16078223468E+02 -0.29829768737E+02  0.36089860585E+02  0.00000000000E+00 0.  1.
<mgrwt>
<rscale>  2 0.20314107E+02</rscale>
<asrwt>0</asrwt>
<pdfrwt beam="1">  1       21 0.75824376E-03 0.20314107E+02</pdfrwt>
<pdfrwt beam="2">  1       21 0.13895491E-01 0.20314107E+02</pdfrwt>
<totfact> 0.16772587E+08</totfact>
</mgrwt>
</event>
<event>
 4    1  0.9374408E+003  0.2093544E+02  0.7546771E-02  0.1727341E+00
         21   -1    0    0  504  501  0.00000000000E+00  0.00000000000E+00  0.70368959576E+03  0.70368959576E+03  0.00000000000E+00 0. -1.
         21   -1    0    0  501  502 -0.00000000000E+00 -0.00000000000E+00 -0.10609991103E+01  0.10609991103E+01  0.00000000000E+00 0. -1.
         21    1    1    2  503  502 -0.45461955858E+01 -0.20435871462E+02  0.12487117123E+03  0.12661398873E+03  0.00000000000E+00 0. -1.
         21    1    1    2  504  503  0.45461955858E+01  0.20435871462E+02  0.57775742542E+03  0.57813660614E+03  0.00000000000E+00 0. -1.
<mgrwt>
<rscale>  2 0.20935442E+02</rscale>
<asrwt>0</asrwt>
<pdfrwt beam="1">  1       21 0.10825956E+00 0.20935442E+02</pdfrwt>
<pdfrwt beam="2">  1       21 0.16323120E-03 0.20935442E+02</pdfrwt>
<totfact> 0.32461413E+07</totfact>
</mgrwt>
</event>
<event>
 4    1  0.9374408E+003  0.3218144E+02  0.7546771E-02  0.1575156E+00
         21   -1    0    0  502  501  0.00000000000E+00  0.00000000000E+00  0.74379389065E+03  0.74379389065E+03  0.00000000000E+00 0.  1.
         21   -1    0    0  503  502 -0.00000000000E+00 -0.00000000000E+00 -0.72829366452E+01  0.72829366452E+01  0.00000000000E+00 0.  1.
         21    1    1    2  503  504  0.45731205418E+01  0.31854854652E+02  0.70599290941E+03  0.70672599593E+03  0.00000000000E+00 0.  1.
         21    1    1    2  504  501 -0.45731205418E+01 -0.31854854652E+02  0.30518044600E+02  0.44350831363E+02  0.00000000000E+00 0.  1.
<mgrwt>
<rscale>  2 0.32181442E+02</rscale>
<asrwt>0</asrwt>
<pdfrwt beam="1">  1       21 0.11442977E+00 0.32181442E+02</pdfrwt>
<pdfrwt beam="2">  1       21 0.11204524E-02 0.32181442E+02</pdfrwt>
<totfact> 0.17724515E+06</totfact>
</mgrwt>
</event>
<event>
 4    1  0.9374408E+003  0.2023883E+02  0.7546771E-02  0.1740620E+00
         21   -1    0    0  502  501  0.00000000000E+00  0.00000000000E+00  0.76067668331E+01  0.76067668331E+01  0.00000000000E+00 0.  1.
         21   -1    0    0  504  502 -0.00000000000E+00 -0.00000000000E+00 -0.28591394288E+03  0.28591394288E+03  0.00000000000E+00 0.  1.
         21    1    1    2  503  501  0.40094974831E+00 -0.20234860435E+02 -0.27137343444E+03  0.27212708659E+03  0.00000000000E+00 0. -1.
         21    1    1    2  504  503 -0.40094974831E+00  0.20234860435E+02 -0.69337416057E+01  0.21393623119E+02  0.00000000000E+00 0. -1.
<mgrwt>
<rscale>  2 0.20238832E+02</rscale>
<asrwt>0</asrwt>
<pdfrwt beam="1">  1       21 0.11702718E-02 0.20238832E+02</pdfrwt>
<pdfrwt beam="2">  1       21 0.43986761E-01 0.20238832E+02</pdfrwt>
<totfact> 0.11303640E+07</totfact>
</mgrwt>
</event>
<event>
 4    1  0.9374408E+003  0.2356185E+02  0.7546771E-02  0.1682561E+00
         21   -1    0    0  502  501  0.00000000000E+00  0.00000000000E+00  0.13087489280E+02  0.13087489280E+02  0.00000000000E+00 0.  1.
         21   -1    0    0  504  502 -0.00000000000E+00 -0.00000000000E+00 -0.65805762674E+02  0.65805762674E+02  0.00000000000E+00 0.  1.
         21    1    1    2  503  501 -0.14606149063E+02 -0.18488408014E+02 -0.28432640892E+01  0.23732782644E+02  0.00000000000E+00 0.  1.
         21    1    1    2  504  503  0.14606149063E+02  0.18488408014E+02 -0.49875009305E+02  0.55160469311E+02  0.00000000000E+00 0.  1.
<mgrwt>
<rscale>  2 0.23561851E+02</rscale>
<asrwt>0</asrwt>
<pdfrwt beam="1">  1       21 0.20134599E-02 0.23561851E+02</pdfrwt>
<pdfrwt beam="2">  1       21 0.10123963E-01 0.23561851E+02</pdfrwt>
<totfact> 0.68055965E+07</totfact>
</mgrwt>
</event>
<event>
 4    1  0.9374408E+003  0.3645217E+02  0.7546771E-02  0.1536070E+00
         21   -1    0    0  502  501  0.00000000000E+00  0.00000000000E+00  0.24451386536E+01  0.24451386536E+01  0.00000000000E+00 0. -1.
         21   -1    0    0  504  502 -0.00000000000E+00 -0.00000000000E+00 -0.89675016012E+03  0.89675016012E+03  0.00000000000E+00 0. -1.
         21    1    1    2  503  501 -0.44437865913E+01  0.36180294009E+02 -0.72936271106E+03  0.73027304839E+03  0.00000000000E+00 0. -1.
         21    1    1    2  504  503  0.44437865913E+01 -0.36180294009E+02 -0.16494231040E+03  0.16892225038E+03  0.00000000000E+00 0. -1.
<mgrwt>
<rscale>  2 0.36452173E+02</rscale>
<asrwt>0</asrwt>
<pdfrwt beam="1">  1       21 0.37617508E-03 0.36452173E+02</pdfrwt>
<pdfrwt beam="2">  1       21 0.13796160E+00 0.36452173E+02</pdfrwt>
<totfact> 0.59798539E+06</totfact>
</mgrwt>
</event>
<event>
 4    1  0.9374408E+003  0.2158112E+02  0.7546771E-02  0.1715599E+00
         21   -1    0    0  502  501  0.00000000000E+00  0.00000000000E+00  0.13833217473E+01  0.13833217473E+01  0.00000000000E+00 0. -1.
         21   -1    0    0  503  502 -0.00000000000E+00 -0.00000000000E+00 -0.41419429125E+03  0.41419429125E+03  0.00000000000E+00 0. -1.
         21    1    1    2  503  504  0.18750206004E+02  0.10685248441E+02 -0.29629205216E+03  0.29707696803E+03  0.00000000000E+00 0.  1.
         21    1    1    2  504  501 -0.18750206004E+02 -0.10685248441E+02 -0.11651891734E+03  0.11850064496E+03  0.00000000000E+00 0.  1.
<mgrwt>
<rscale>  2 0.21581120E+02</rscale>
<asrwt>0</asrwt>
<pdfrwt beam="1">  1       21 0.21281846E-03 0.21581120E+02</pdfrwt>
<pdfrwt beam="2">  1       21 0.63722281E-01 0.21581120E+02</pdfrwt>
<totfact> 0.68191332E+07</totfact>
</mgrwt>
</event>
<event>
 4    1  0.9374408E+003  0.2527257E+02  0.7546771E-02  0.1657117E+00
         21   -1    0    0  502  501  0.00000000000E+00  0.00000000000E+00  0.41898444499E+01  0.41898444499E+01  0.00000000000E+00 0.  1.
         21   -1    0    0  504  502 -0.00000000000E+00 -0.00000000000E+00 -0.15885008409E+03  0.15885008409E+03  0.00000000000E+00 0.  1.
         21    1    1    2  503  501 -0.53087685642E+01  0.24708698755E+02 -0.93705011259E+02  0.97053242876E+02  0.00000000000E+00 0.  1.
         21    1    1    2  504  503  0.53087685642E+01 -0.24708698755E+02 -0.60955228379E+02  0.65986685661E+02  0.00000000000E+00 0.  1.
<mgrwt>
<rscale>  2 0.25272570E+02</rscale>
<asrwt>0</asrwt>
<pdfrwt beam="1">  1       21 0.64459144E-03 0.25272570E+02</pdfrwt>
<pdfrwt beam="2">  1       21 0.24438475E-01 0.25272570E+02</pdfrwt>
<totfact> 0.85419949E+07</totfact>
</mgrwt>
</event>
<event>
 4    1  0.9374408E+003  0.2178729E+02  0.7546771E-02  0.1711957E+00
         21   -1    0    0  503  501  0.00000000000E+00  0.00000000000E+00  0.12788554104E+01  0.12788554104E+01  0.00000000000E+00 0. -1.
         21   -1    0    0  501  502 -0.00000000000E+00 -0.00000000000E+00 -0.39549045697E+03  0.39549045697E+03  0.00000000000E+00 0. -1.
         21    1    1    2  503  504 -0.18520925601E+02 -0.11474373799E+02 -0.14792065914E+03  0.14951657881E+03  0.00000000000E+00 0. -1.
         21    1    1    2  504  502  0.18520925601E+02  0.11474373799E+02 -0.24629094242E+03  0.24725273357E+03  0.00000000000E+00 0. -1.
<mgrwt>
<rscale>  2 0.21787288E+02</rscale>
<asrwt>0</asrwt>
<pdfrwt beam="1">  1       21 0.19674668E-03 0.21787288E+02</pdfrwt>
<pdfrwt beam="2">  1       21 0.60844780E-01 0.21787288E+02</pdfrwt>
<totfact> 0.83981543E+07</totfact>
</mgrwt>
</event>
<event>
 4    1  0.9374408E+003  0.4644768E+02  0.7546771E-02  0.1465501E+00
         21   -1    0    0  503  501  0.00000000000E+00  0.00000000000E+00  0.25464873243E+03  0.25464873243E+03  0.00000000000E+00 0.  1.
         21   -1    0    0  501  502 -0.00000000000E+00 -0.00000000000E+00 -0.10044637101E+02  0.10044637101E+02  0.00000000000E+00 0.  1.
         21    1    1    2  503  504 -0.92173882072E+01  0.45523911668E+02  0.69934923278E+02  0.83954036668E+02  0.00000000000E+00 0.  1.
         21    1    1    2  504  502  0.92173882072E+01 -0.45523911668E+02  0.17466917205E+03  0.18073933286E+03  0.00000000000E+00 0.  1.
<mgrwt>
<rscale>  2 0.46447678E+02</rscale>
<asrwt>0</asrwt>
<pdfrwt beam="1">  1       21 0.39176723E-01 0.46447678E+02</pdfrwt>
<pdfrwt beam="2">  1       21 0.15453290E-02 0.46447678E+02</pdfrwt>
<totfact> 0.10496850E+07</totfact>
</mgrwt>
</event>
<event>
 4    1  0.9374408E+003  0.2425216E+02  0.7546771E-02  0.1671982E+00
         21   -1    0    0  504  501  0.00000000000E+00  0.00000000000E+00  0.11793423741E+02  0.11793423741E+02  0.00000000000E+00 0.  1.
         21   -1    0    0  501  502 -0.00000000000E+00 -0.00000000000E+00 -0.78025120641E+02  0.78025120641E+02  0.00000000000E+00 0.  1.
         21    1    1    2  503  502  0.15341971564E+02 -0.18782739602E+02 -0.61398026904E+01  0.25017285535E+02  0.00000000000E+00 0.  1.
         21    1    1    2  504  503 -0.15341971564E+02  0.18782739602E+02 -0.60091894210E+02  0.64801258847E+02  0.00000000000E+00 0.  1.
<mgrwt>
<rscale>  2 0.24252163E+02</rscale>
<asrwt>0</asrwt>
<pdfrwt beam="1">  1       21 0.18143728E-02 0.24252163E+02</pdfrwt>
<pdfrwt beam="2">  1       21 0.12003865E-01 0.24252163E+02</pdfrwt>
<totfact> 0.60564864E+07</totfact>
</mgrwt>
</event>
<event>
 4    1  0.9374408E+003  0.2382349E+02  0.7546771E-02  0.1678499E+00
         21   -1    0    0  503  501  0.00000000000E+00  0.00000000000E+00  0.21073814220E+02  0.21073814220E+02  0.00000000000E+00 0.  1.
         21   -1    0    0  501  502 -0.00000000000E+00 -0.00000000000E+00 -0.55251491559E+02  0.55251491559E+02  0.00000000000E+00 0.  1.
         21    1    1    2  503  504  0.95431096910E+01  0.21828600402E+02 -0.44410664977E+02  0.50397082275E+02  0.00000000000E+00 0. -1.
         21    1    1    2  504  502 -0.95431096910E+01 -0.21828600402E+02  0.10232987638E+02  0.25928223504E+02  0.00000000000E+00 0. -1.
<mgrwt>
<rscale>  2 0.23823491E+02</rscale>
<asrwt>0</asrwt>
<pdfrwt beam="1">  1       21 0.32421253E-02 0.23823491E+02</pdfrwt>
<pdfrwt beam="2">  1       21 0.85002294E-02 0.23823491E+02</pdfrwt>
<totfact> 0.43516384E+07</totfact>
</mgrwt>
</event>
<event>
 4    1  0.9374408E+003  0.3193640E+02  0.7546771E-02  0.1577620E+00
         21   -1    0    0  502  501  0.00000000000E+00  0.00000000000E+00  0.55966864631E+02  0.55966864631E+02  0.00000000000E+00 0. -1.
         21   -1    0    0  503  502 -0.00000000000E+00 -0.00000000000E+00 -0.20018243652E+02  0.20018243652E+02  0.00000000000E+00 0. -1.
         21    1    1    2  503  504 -0.16099874224E+02 -0.27581291403E+02  0.65995989917E+01  0.32611168215E+02  0.00000000000E+00 0.  1.
         21    1    1    2  504  501  0.16099874224E+02  0.27581291403E+02  0.29349021987E+02  0.43373940068E+02  0.00000000000E+00 0.  1.
<mgrwt>
<rscale>  2 0.31936399E+02</rscale>
<asrwt>0</asrwt>
<pdfrwt beam="1">  1       21 0.86102868E-02 0.31936399E+02</pdfrwt>
<pdfrwt beam="2">  1       21 0.30797298E-02 0.31936399E+02</pdfrwt>
<totfact> 0.49393039E+07</totfact>
</mgrwt>
</event>
<event>
 4    1  0.9374408E+003  0.2695510E+02  0.7546771E-02  0.1634410E+00
         21   -1    0    0  502  501  0.00000000000E+00  0.00000000000E+00  0.37367294094E+02  0.37367294094E+02  0.00000000000E+00 0. -1.
         21   -1    0    0  503  502 -0.00000000000E+00 -0.00000000000E+00 -0.23745008528E+02  0.23745008528E+02  0.00000000000E+00 0. -1.
         21    1    1    2  503  504  0.26933258182E+02  0.10849508795E+01  0.19815444423E+02  0.33454885329E+02  0.00000000000E+00 0. -1.
         21    1    1    2  504  501 -0.26933258182E+02 -0.10849508795E+01 -0.61931588572E+01  0.27657417293E+02  0.00000000000E+00 0. -1.
<mgrwt>
<rscale>  2 0.26955102E+02</rscale>
<asrwt>0</asrwt>
<pdfrwt beam="1">  1       21 0.57488145E-02 0.26955102E+02</pdfrwt>
<pdfrwt beam="2">  1       21 0.36530782E-02 0.26955102E+02</pdfrwt>
<totfact> 0.70234716E+07</totfact>
</mgrwt>
</event>
<event>
 4    1  0.9374408E+003  0.2016585E+02  0.7546771E-02  0.1742050E+00
         21   -1    0    0  503  501  0.00000000000E+00  0.00000000000E+00  0.10904104797E+03  0.10904104797E+03  0.00000000000E+00 0. -1.
         21   -1    0    0  501  502 -0.00000000000E+00 -0.00000000000E+00 -0.64069552638E+01  0.64069552638E+01  0.00000000000E+00 0. -1.
         21    1    1    2  503  504 -0.19880787560E+02 -0.33787095467E+01  0.14000877610E+02  0.24549663257E+02  0.00000000000E+00 0. -1.
         21    1    1    2  504  502  0.19880787560E+02  0.33787095467E+01  0.88633215098E+02  0.90898339979E+02  0.00000000000E+00 0. -1.
<mgrwt>
<rscale>  2 0.20165847E+02</rscale>
<asrwt>0</asrwt>
<pdfrwt beam="1">  1       21 0.16775544E-01 0.20165847E+02</pdfrwt>
<pdfrwt beam="2">  1       21 0.98568550E-03 0.20165847E+02</pdfrwt>
<totfact> 0.82277733E+07</totfact>
</mgrwt>
</event>
<event>
 4    1  0.9374408E+003  0.3195682E+02  0.7546771E-02  0.1577414E+00
         21   -1    0    0  504  501  0.00000000000E+00  0.00000000000E+00  0.10597332107E+02  0.10597332107E+02  0.00000000000E+00 0. -1.
         21   -1    0    0  501  502 -0.00000000000E+00 -0.00000000000E+00 -0.17317080620E+03  0.17317080620E+03  0.00000000000E+00 0. -1.
         21    1    1    2  503  502 -0.29383735798E+02  0.12563227886E+02 -0.14247847373E+03  0.14601833481E+03  0.00000000000E+00 0.  1.
         21    1    1    2  504  503  0.29383735798E+02 -0.12563227886E+02 -0.20095000359E+02  0.37749803493E+02  0.00000000000E+00 0.  1.
<mgrwt>
<rscale>  2 0.31956824E+02</rscale>
<asrwt>0</asrwt>
<pdfrwt beam="1">  1       21 0.16303587E-02 0.31956824E+02</pdfrwt>
<pdfrwt beam="2">  1       21 0.26641664E-01 0.31956824E+02</pdfrwt>
<totfact> 0.18847059E+07</totfact>
</mgrwt>
</event>
<event>
 4    1  0.9374408E+003  0.4082298E+02  0.7546771E-02  0.1502241E+00
         21   -1    0    0  502  501  0.00000000000E+00  0.00000000000E+00  0.12876105836E+03  0.12876105836E+03  0.00000000000E+00 0. -1.
         21   -1    0    0  504  502 -0.00000000000E+00 -0.00000000000E+00 -0.15413621344E+02  0.15413621344E+02  0.00000000000E+00 0. -1.
         21    1    1    2  503  501  0.33475728832E+02  0.23364323138E+02  0.85536350722E+02  0.94778601548E+02  0.00000000000E+00 0. -1.
         21    1    1    2  504  503 -0.33475728832E+02 -0.23364323138E+02  0.27811086299E+02  0.49396078160E+02  0.00000000000E+00 0. -1.
<mgrwt>
<rscale>  2 0.40822984E+02</rscale>
<asrwt>0</asrwt>
<pdfrwt beam="1">  1       21 0.19809393E-01 0.40822984E+02</pdfrwt>
<pdfrwt beam="2">  1       21 0.23713264E-02 0.40822984E+02</pdfrwt>
<totfact> 0.18656227E+07</totfact>
</mgrwt>
</event>
<event>
 4    1  0.9374408E+003  0.4591886E+02  0.7546771E-02  0.1468686E+00
         21   -1    0    0  503  501  0.00000000000E+00  0.00000000000E+00  0.37987959433E+02  0.37987959433E+02  0.00000000000E+00 0. -1.
         21   -1    0    0  501  502 -0.00000000000E+00 -0.00000000000E+00 -0.91097438546E+02  0.91097438546E+02  0.00000000000E+00 0. -1.
         21    1    1    2  503  504  0.27562885972E+02  0.36726402699E+02 -0.66897884967E+02  0.81141039872E+02  0.00000000000E+00 0.  1.
         21    1    1    2  504  502 -0.27562885972E+02 -0.36726402699E+02  0.13788405855E+02  0.47944358108E+02  0.00000000000E+00 0.  1.
<mgrwt>
<rscale>  2 0.45918856E+02</rscale>
<asrwt>0</asrwt>
<pdfrwt beam="1">  1       21 0.58443015E-02 0.45918856E+02</pdfrwt>
<pdfrwt beam="2">  1       21 0.14014990E-01 0.45918856E+02</pdfrwt>
<totfact> 0.81757925E+06</totfact>
</mgrwt>
</event>
<event>
 4    1  0.9374408E+003  0.2128240E+02  0.7546771E-02  0.1720966E+00
         21   -1    0    0  502  501  0.00000000000E+00  0.00000000000E+00  0.14321869127E+01  0.14321869127E+01  0.00000000000E+00 0.  1.
         21   -1    0    0  503  502 -0.00000000000E+00 -0.00000000000E+00 -0.38317041843E+03  0.38317041843E+03  0.00000000000E+00 0.  1.
         21    1    1    2  503  504  0.20847675073E+02  0.42796043675E+01 -0.27122905526E+03  0.27206275193E+03  0.00000000000E+00 0.  1.
         21    1    1    2  504  501 -0.20847675073E+02 -0.42796043675E+01 -0.11050917625E+03  0.11253985341E+03  0.00000000000E+00 0.  1.
<mgrwt>
<rscale>  2 0.21282400E+02</rscale>
<asrwt>0</asrwt>
<pdfrwt beam="1">  1       21 0.22033622E-03 0.21282400E+02</pdfrwt>
<pdfrwt beam="2">  1       21 0.58949355E-01 0.21282400E+02</pdfrwt>
<totfact> 0.75521940E+07</totfact>
</mgrwt>
</event>
<event>
 4    1  0.9374408E+003  0.2185122E+02  0.7546771E-02  0.1710838E+00
         21   -1    0    0  502  501  0.00000000000E+00  0.00000000000E+00  0.59918070318E+01  0.59918070318E+01  0.00000000000E+00 0. -1.
         21   -1    0    0  504  502 -0.00000000000E+00 -0.00000000000E+00 -0.92319684411E+02  0.92319684411E+02  0.00000000000E+00 0. -1.
         21    1    1    2  503  501  0.18242390775E+02 -0.12028754619E+02 -0.61346536406E+02  0.65121987746E+02  0.00000000000E+00 0. -1.
         21    1    1    2  504  503 -0.18242390775E+02  0.12028754619E+02 -0.24981340973E+02  0.33189503698E+02  0.00000000000E+00 0. -1.
<mgrwt>
<rscale>  2 0.21851219E+02</rscale>
<asrwt>0</asrwt>
<pdfrwt beam="1">  1       21 0.92181650E-03 0.21851219E+02</pdfrwt>
<pdfrwt beam="2">  1       21 0.14203028E-01 0.21851219E+02</pdfrwt>
<totfact> 0.12350223E+08</totfact>
</mgrwt>
</event>
<event>
 4    1  0.9374408E+003  0.2378791E+02  0.7546771E-02  0.1679048E+00
         21   -1    0    0  503  501  0.00000000000E+00  0.00000000000E+00  0.40732716576E+01  0.40732716576E+01  0.00000000000E+00 0.  1.
         21   -1    0    0  501  502 -0.00000000000E+00 -0.00000000000E+00 -0.40578835466E+03  0.40578835466E+03  0.00000000000E+00 0.  1.
         21    1    1    2  503  504  0.12747105264E+02 -0.20084226895E+02 -0.36704751602E+03  0.36781754156E+03  0.00000000000E+00 0. -1.
         21    1    1    2  504  502 -0.12747105264E+02  0.20084226895E+02 -0.34667566977E+02  0.42044084753E+02  0.00000000000E+00 0. -1.
<mgrwt>
<rscale>  2 0.23787914E+02</rscale>
<asrwt>0</asrwt>
<pdfrwt beam="1">  1       21 0.62665697E-03 0.23787914E+02</pdfrwt>
<pdfrwt beam="2">  1       21 0.62428998E-01 0.23787914E+02</pdfrwt>
<totfact> 0.14946619E+07</totfact>
</mgrwt>
</event>
<event>
 4    1  0.9374408E+003  0.3183616E+02  0.7546771E-02  0.1578636E+00
         21   -1    0    0  503  501  0.00000000000E+00  0.00000000000E+00  0.12001810878E+02  0.12001810878E+02  0.00000000000E+00 0. -1.
         21   -1    0    0  501  502 -0.00000000000E+00 -0.00000000000E+00 -0.16329725414E+03  0.16329725414E+03  0.00000000000E+00 0. -1.
         21    1    1    2  503  504 -0.31186918910E+02  0.63966754292E+01 -0.14742279155E+02  0.35083844749E+02  0.00000000000E+00 0.  1.
         21    1    1    2  504  502  0.31186918910E+02 -0.63966754292E+01 -0.13655316410E+03  0.14021522027E+03  0.00000000000E+00 0.  1.
<mgrwt>
<rscale>  2 0.31836164E+02</rscale>
<asrwt>0</asrwt>
<pdfrwt beam="1">  1       21 0.18464325E-02 0.31836164E+02</pdfrwt>
<pdfrwt beam="2">  1       21 0.25122653E-01 0.31836164E+02</pdfrwt>
<totfact> 0.17286424E+07</totfact>
</mgrwt>
</event>
<event>
 4    1  0.9374408E+003  0.2378222E+02  0.7546771E-02  0.1679135E+00
         21   -1    0    0  504  501  0.00000000000E+00  0.00000000000E+00  0.34978931103E+02  0.34978931103E+02  0.00000000000E+00 0. -1.
         21   -1    0    0  501  502 -0.00000000000E+00 -0.00000000000E+00 -0.19541648205E+02  0.19541648205E+02  0.00000000000E+00 0. -1.
         21    1    1    2  503  502  0.85648330426E+00  0.23766796005E+02 -0.36053337349E+01  0.24053951595E+02  0.00000000000E+00 0. -1.
         21    1    1    2  504  503 -0.85648330426E+00 -0.23766796005E+02  0.19042616634E+02  0.30466627713E+02  0.00000000000E+00 0. -1.
<mgrwt>
<rscale>  2 0.23782224E+02</rscale>
<asrwt>0</asrwt>
<pdfrwt beam="1">  1       21 0.53813740E-02 0.23782224E+02</pdfrwt>
<pdfrwt beam="2">  1       21 0.30064074E-02 0.23782224E+02</pdfrwt>
<totfact> 0.10258721E+08</totfact>
</mgrwt>
</event>
<event>
 4    1  0.9374408E+003  0.2138271E+02  0.7546771E-02  0.1719152E+00
         21   -1    0    0  504  501  0.00000000000E+00  0.00000000000E+00  0.21239376644E+02  0.21239376644E+02  0.00000000000E+00 0.  1.
         21   -1    0    0  501  502 -0.00000000000E+00 -0.00000000000E+00 -0.36382469051E+02  0.36382469051E+02  0.00000000000E+00 0.  1.
         21    1    1    2  503  502  0.19420039723E+02  0.89488635563E+01  0.10838473002E+02  0.23972747002E+02  0.00000000000E+00 0. -1.
         21    1    1    2  504  503 -0.19420039723E+02 -0.89488635563E+01 -0.25981565409E+02  0.33649098694E+02  0.00000000000E+00 0. -1.
<mgrwt>
<rscale>  2 0.21382706E+02</rscale>
<asrwt>0</asrwt>
<pdfrwt beam="1">  1       21 0.32675965E-02 0.21382706E+02</pdfrwt>
<pdfrwt beam="2">  1       21 0.55973028E-02 0.21382706E+02</pdfrwt>
<totfact> 0.82068445E+07</totfact>
</mgrwt>
</event>
<event>
 4    1  0.9374408E+003  0.2049663E+02  0.7546771E-02  0.1735629E+00
         21   -1    0    0  503  501  0.00000000000E+00  0.00000000000E+00  0.95504162134E+01  0.95504162134E+01  0.00000000000E+00 0. -1.
         21   -1    0    0  501  502 -0.00000000000E+00 -0.00000000000E+00 -0.51719105933E+02  0.51719105933E+02  0.00000000000E+00 0. -1.
         21    1    1    2  503  504 -0.19038555597E+02 -0.75924490841E+01 -0.32928000310E+02  0.38786145552E+02  0.00000000000E+00 0.  1.
         21    1    1    2  504  502  0.19038555597E+02  0.75924490841E+01 -0.92406894092E+01  0.22483376594E+02  0.00000000000E+00 0.  1.
<mgrwt>
<rscale>  2 0.20496631E+02</rscale>
<asrwt>0</asrwt>
<pdfrwt beam="1">  1       21 0.14692948E-02 0.20496631E+02</pdfrwt>
<pdfrwt beam="2">  1       21 0.79567854E-02 0.20496631E+02</pdfrwt>
<totfact> 0.15683313E+08</totfact>
</mgrwt>
</event>
<event>
 4    1  0.9374408E+003  0.2278679E+02  0.7546771E-02  0.1694990E+00
         21   -1    0    0  502  501  0.00000000000E+00  0.00000000000E+00  0.71417483551E+02  0.71417483551E+02  0.00000000000E+00 0. -1.
         21   -1    0    0  504  502 -0.00000000000E+00 -0.00000000000E+00 -0.93232533021E+01  0.93232533021E+01  0.00000000000E+00 0. -1.
         21    1    1    2  503  501  0.15117940641E+02  0.17049501904E+02  0.12103971774E+02  0.25802011106E+02  0.00000000000E+00 0.  1.
         21    1    1    2  504  503 -0.15117940641E+02 -0.17049501904E+02  0.49990258475E+02  0.54938725748E+02  0.00000000000E+00 0.  1.
<mgrwt>
<rscale>  2 0.22786787E+02</rscale>
<asrwt>0</asrwt>
<pdfrwt beam="1">  1       21 0.10987305E-01 0.22786787E+02</pdfrwt>
<pdfrwt beam="2">  1       21 0.14343467E-02 0.22786787E+02</pdfrwt>
<totfact> 0.98782604E+07</totfact>
</mgrwt>
</event>
<event>
 4    1  0.9374408E+003  0.2071385E+02  0.7546771E-02  0.1731494E+00
         21   -1    0    0  502  501  0.00000000000E+00  0.00000000000E+00  0.67278653618E+02  0.67278653618E+02  0.00000000000E+00 0.  1.
         21   -1    0    0  504  502 -0.00000000000E+00 -0.00000000000E+00 -0.13386607335E+02  0.13386607335E+02  0.00000000000E+00 0.  1.
         21    1    1    2  503  501  0.18174124111E+02  0.99380406039E+01 -0.22386937025E+01  0.20834471141E+02  0.00000000000E+00 0. -1.
         21    1    1    2  504  503 -0.18174124111E+02 -0.99380406039E+01  0.56130739985E+02  0.59830789812E+02  0.00000000000E+00 0. -1.
<mgrwt>
<rscale>  2 0.20713847E+02</rscale>
<asrwt>0</asrwt>
<pdfrwt beam="1">  1       21 0.10350562E-01 0.20713847E+02</pdfrwt>
<pdfrwt beam="2">  1       21 0.20594781E-02 0.20713847E+02</pdfrwt>
<totfact> 0.61203504E+07</totfact>
</mgrwt>
</event>
<event>
 4    1  0.9374408E+003  0.3409060E+02  0.7546771E-02  0.1556828E+00
         21   -1    0    0  504  501  0.00000000000E+00  0.00000000000E+00  0.12093727426E+02  0.12093727426E+02  0.00000000000E+00 0. -1.
         21   -1    0    0  501  502 -0.00000000000E+00 -0.00000000000E+00 -0.18982248603E+03  0.18982248603E+03  0.00000000000E+00 0. -1.
         21    1    1    2  503  502 -0.30369785487E+02 -0.15486925715E+02 -0.17923488345E+02  0.38515194055E+02  0.00000000000E+00 0.  1.
         21    1    1    2  504  503  0.30369785487E+02  0.15486925715E+02 -0.15980527026E+03  0.16340101940E+03  0.00000000000E+00 0.  1.
<mgrwt>
<rscale>  2 0.34090596E+02</rscale>
<asrwt>0</asrwt>
<pdfrwt beam="1">  1       21 0.18605735E-02 0.34090596E+02</pdfrwt>
<pdfrwt beam="2">  1       21 0.29203459E-01 0.34090596E+02</pdfrwt>
<totfact> 0.13126122E+07</totfact>
</mgrwt>
</event>
<event>
 4    1  0.9374408E+003  0.2626248E+02  0.7546771E-02  0.1643504E+00
         21   -1    0    0  502  501  0.00000000000E+00  0.00000000000E+00  0.54556354461E+02  0.54556354461E+02  0.00000000000E+00 0.  1.
         21   -1    0    0  503  502 -0.00000000000E+00 -0.00000000000E+00 -0.18004851957E+02  0.18004851957E+02  0.00000000000E+00 0.  1.
         21    1    1    2  503  504 -0.19513838469E+02  0.17576352858E+02  0.38075755192E+02  0.46254526319E+02  0.00000000000E+00 0.  1.
         21    1    1    2  504  501  0.19513838469E+02 -0.17576352858E+02 -0.15242526882E+01  0.26306680099E+02  0.00000000000E+00 0.  1.
<mgrwt>
<rscale>  2 0.26262484E+02</rscale>
<asrwt>0</asrwt>
<pdfrwt beam="1">  1       21 0.83932852E-02 0.26262484E+02</pdfrwt>
<pdfrwt beam="2">  1       21 0.27699773E-02 0.26262484E+02</pdfrwt>
<totfact> 0.58178715E+07</totfact>
</mgrwt>
</event>
<event>
 4    1  0.9374408E+003  0.2244123E+02  0.7546771E-02  0.1700731E+00
         21   -1    0    0  502  501  0.00000000000E+00  0.00000000000E+00  0.13348836261E+03  0.13348836261E+03  0.00000000000E+00 0.  1.
         21   -1    0    0  504  502 -0.00000000000E+00 -0.00000000000E+00 -0.13688853207E+02  0.13688853207E+02  0.00000000000E+00 0.  1.
         21    1    1    2  503  501 -0.11551454221E+02  0.19239873270E+02  0.12253216365E+03  0.12457022095E+03  0.00000000000E+00 0.  1.
         21    1    1    2  504  503  0.11551454221E+02 -0.19239873270E+02 -0.27326542420E+01  0.22606994875E+02  0.00000000000E+00 0.  1.
<mgrwt>
<rscale>  2 0.22441230E+02</rscale>
<asrwt>0</asrwt>
<pdfrwt beam="1">  1       21 0.20536670E-01 0.22441230E+02</pdfrwt>
<pdfrwt beam="2">  1       21 0.21059775E-02 0.22441230E+02</pdfrwt>
<totfact> 0.18874357E+07</totfact>
</mgrwt>
</event>
<event>
 4    1  0.9374408E+003  0.2175835E+02  0.7546771E-02  0.1712465E+00
         21   -1    0    0  504  501  0.00000000000E+00  0.00000000000E+00  0.62513027352E+01  0.62513027352E+01  0.00000000000E+00 0. -1.
         21   -1    0    0  501  502 -0.00000000000E+00 -0.00000000000E+00 -0.92971652425E+02  0.92971652425E+02  0.00000000000E+00 0. -1.
         21    1    1    2  503  502  0.16237845543E+02  0.14483036644E+02 -0.64723382696E+02  0.68282810764E+02  0.00000000000E+00 0.  1.
         21    1    1    2  504  503 -0.16237845543E+02 -0.14483036644E+02 -0.21996966994E+02  0.30940144396E+02  0.00000000000E+00 0.  1.
<mgrwt>
<rscale>  2 0.21758354E+02</rscale>
<asrwt>0</asrwt>
<pdfrwt beam="1">  1       21 0.96173902E-03 0.21758354E+02</pdfrwt>
<pdfrwt beam="2">  1       21 0.14303329E-01 0.21758354E+02</pdfrwt>
<totfact> 0.11439595E+08</totfact>
</mgrwt>
</event>
<event>
 4    1  0.9374408E+003  0.2958450E+02  0.7546771E-02  0.1602727E+00
         21   -1    0    0  502  501  0.00000000000E+00  0.00000000000E+00  0.16848402877E+02  0.16848402877E+02  0.00000000000E+00 0. -1.
         21   -1    0    0  503  502 -0.00000000000E+00 -0.00000000000E+00 -0.14131385248E+03  0.14131385248E+03  0.00000000000E+00 0. -1.
         21    1    1    2  503  504 -0.29000374562E+02 -0.58498841845E+01  0.65501595897E+00  0.29591754183E+02  0.00000000000E+00 0.  1.
         21    1    1    2  504  501  0.29000374562E+02  0.58498841845E+01 -0.12512046557E+03  0.12857050118E+03  0.00000000000E+00 0.  1.
<mgrwt>
<rscale>  2 0.29584504E+02</rscale>
<asrwt>0</asrwt>
<pdfrwt beam="1">  1       21 0.25920620E-02 0.29584504E+02</pdfrwt>
<pdfrwt beam="2">  1       21 0.21740592E-01 0.29584504E+02</pdfrwt>
<totfact> 0.13056308E+07</totfact>
</mgrwt>
</event>
<event>
 4    1  0.9374408E+003  0.2243811E+02  0.7546771E-02  0.1700783E+00
         21   -1    0    0  503  501  0.00000000000E+00  0.00000000000E+00  0.53224211251E+03  0.53224211251E+03  0.00000000000E+00 0.  1.
         21   -1    0    0  501  502 -0.00000000000E+00 -0.00000000000E+00 -0.16829215689E+01  0.16829215689E+01  0.00000000000E+00 0.  1.
         21    1    1    2  503  504 -0.89839505485E+01  0.20561062316E+02  0.88616061326E+02  0.91412663105E+02  0.00000000000E+00 0.  1.
         21    1    1    2  504  502  0.89839505485E+01 -0.20561062316E+02  0.44194312962E+03  0.44251237098E+03  0.00000000000E+00 0.  1.
<mgrwt>
<rscale>  2 0.22438107E+02</rscale>
<asrwt>0</asrwt>
<pdfrwt beam="1">  1       21 0.81883267E-01 0.22438107E+02</pdfrwt>
<pdfrwt beam="2">  1       21 0.25891144E-03 0.22438107E+02</pdfrwt>
<totfact> 0.30927871E+07</totfact>
</mgrwt>
</event>
<event>
 4    1  0.9374408E+003  0.3976894E+02  0.7546771E-02  0.1509919E+00
         21   -1    0    0  503  501  0.00000000000E+00  0.00000000000E+00  0.55795075403E+03  0.55795075403E+03  0.00000000000E+00 0.  1.
         21   -1    0    0  501  502 -0.00000000000E+00 -0.00000000000E+00 -0.68889115663E+01  0.68889115663E+01  0.00000000000E+00 0.  1.
         21    1    1    2  503  504 -0.39001799922E+02 -0.77735740925E+01  0.49219069688E+03  0.49379474577E+03  0.00000000000E+00 0.  1.
         21    1    1    2  504  502  0.39001799922E+02  0.77735740925E+01  0.58871145584E+02  0.71044919830E+02  0.00000000000E+00 0.  1.
<mgrwt>
<rscale>  2 0.39768943E+02</rscale>
<asrwt>0</asrwt>
<pdfrwt beam="1">  1       21 0.85838542E-01 0.39768943E+02</pdfrwt>
<pdfrwt beam="2">  1       21 0.10598330E-02 0.39768943E+02</pdfrwt>
<totfact> 0.37228677E+06</totfact>
</mgrwt>
</event>
<event>
 4    1  0.9374408E+003  0.3294983E+02  0.7546771E-02  0.1567599E+00
         21   -1    0    0  502  501  0.00000000000E+00  0.00000000000E+00  0.51318107632E+01  0.51318107632E+01  0.00000000000E+00 0.  1.
         21   -1    0    0  503  502 -0.00000000000E+00 -0.00000000000E+00 -0.50692601897E+03  0.50692601897E+03  0.00000000000E+00 0.  1.
         21    1    1    2  503  504 -0.24883199273E+02  0.21599018951E+02 -0.55464857828E+02  0.64513887494E+02  0.00000000000E+00 0.  1.
         21    1    1    2  504  501  0.24883199273E+02 -0.21599018951E+02 -0.44632935038E+03  0.44754394224E+03  0.00000000000E+00 0.  1.
<mgrwt>
<rscale>  2 0.32949829E+02</rscale>
<asrwt>0</asrwt>
<pdfrwt beam="1">  1       21 0.78950962E-03 0.32949829E+02</pdfrwt>
<pdfrwt beam="2">  1       21 0.77988591E-01 0.32949829E+02</pdfrwt>
<totfact> 0.70174937E+06</totfact>
</mgrwt>
</event>
<event>
 4    1  0.9374408E+003  0.2135310E+02  0.7546771E-02  0.1719686E+00
         21   -1    0    0  504  501  0.00000000000E+00  0.00000000000E+00  0.37271181224E+02  0.37271181224E+02  0.00000000000E+00 0.  1.
         21   -1    0    0  501  502 -0.00000000000E+00 -0.00000000000E+00 -0.25091726324E+02  0.25091726324E+02  0.00000000000E+00 0.  1.
         21    1    1    2  503  502 -0.16673417712E+02 -0.13339859723E+02 -0.16231735471E+02  0.26822079562E+02  0.00000000000E+00 0.  1.
         21    1    1    2  504  503  0.16673417712E+02  0.13339859723E+02  0.28411190372E+02  0.35540827986E+02  0.00000000000E+00 0.  1.
<mgrwt>
<rscale>  2 0.21353096E+02</rscale>
<asrwt>0</asrwt>
<pdfrwt beam="1">  1       21 0.57340279E-02 0.21353096E+02</pdfrwt>
<pdfrwt beam="2">  1       21 0.38602656E-02 0.21353096E+02</pdfrwt>
<totfact> 0.60827993E+07</totfact>
</mgrwt>
</event>
<event>
 4    1  0.9374408E+003  0.2401345E+02  0.7546771E-02  0.1675590E+00
         21   -1    0    0  502  501  0.00000000000E+00  0.00000000000E+00  0.17496817505E+01  0.17496817505E+01  0.00000000000E+00 0. -1.
         21   -1    0    0  503  502 -0.00000000000E+00 -0.00000000000E+00 -0.84765425921E+03  0.84765425921E+03  0.00000000000E+00 0. -1.
         21    1    1    2  503  504 -0.10726485979E+02  0.21484609129E+02 -0.75497998031E+03  0.75536177862E+03  0.00000000000E+00 0. -1.
         21    1    1    2  504  501  0.10726485979E+02 -0.21484609129E+02 -0.90924597151E+02  0.94042162342E+02  0.00000000000E+00 0. -1.
<mgrwt>
<rscale>  2 0.24013453E+02</rscale>
<asrwt>0</asrwt>
<pdfrwt beam="1">  1       21 0.26918249E-03 0.24013453E+02</pdfrwt>
<pdfrwt beam="2">  1       21 0.13040802E+00 0.24013453E+02</pdfrwt>
<totfact> 0.10616973E+07</totfact>
</mgrwt>
</event>
<event>
 4    1  0.9374408E+003  0.2577846E+02  0.7546771E-02  0.1650066E+00
         21   -1    0    0  502  501  0.00000000000E+00  0.00000000000E+00  0.76157028287E+03  0.76157028287E+03  0.00000000000E+00 0.  1.
         21   -1    0    0  503  502 -0.00000000000E+00 -0.00000000000E+00 -0.13388857845E+01  0.13388857845E+01  0.00000000000E+00 0.  1.
         21    1    1    2  503  504 -0.22019763567E+02  0.13403697966E+02  0.15499904150E+03  0.15712807506E+03  0.00000000000E+00 0.  1.
         21    1    1    2  504  501  0.22019763567E+02 -0.13403697966E+02  0.60523235558E+03  0.60578109359E+03  0.00000000000E+00 0.  1.
<mgrwt>
<rscale>  2 0.25778462E+02</rscale>
<asrwt>0</asrwt>
<pdfrwt beam="1">  1       21 0.11716431E+00 0.25778462E+02</pdfrwt>
<pdfrwt beam="2">  1       21 0.20598304E-03 0.25778462E+02</pdfrwt>
<totfact> 0.20241340E+07</totfact>
</mgrwt>
</event>
<event>
 4    1  0.9374408E+003  0.2359816E+02  0.7546771E-02  0.1681994E+00
         21   -1    0    0  502  501  0.00000000000E+00  0.00000000000E+00  0.25549735812E+01  0.25549735812E+01  0.00000000000E+00 0. -1.
         21   -1    0    0  503  502 -0.00000000000E+00 -0.00000000000E+00 -0.56276634112E+03  0.56276634112E+03  0.00000000000E+00 0. -1.
         21    1    1    2  503  504  0.23356650006E+02 -0.33675036463E+01 -0.50135967493E+03  0.50191473063E+03  0.00000000000E+00 0.  1.
         21    1    1    2  504  501 -0.23356650006E+02  0.33675036463E+01 -0.58851692609E+02  0.63406584069E+02  0.00000000000E+00 0.  1.
<mgrwt>
<rscale>  2 0.23598161E+02</rscale>
<asrwt>0</asrwt>
<pdfrwt beam="1">  1       21 0.39307221E-03 0.23598161E+02</pdfrwt>
<pdfrwt beam="2">  1       21 0.86579579E-01 0.23598161E+02</pdfrwt>
<totfact> 0.15093757E+07</totfact>
</mgrwt>
</event>
<event>
 4    1  0.9374408E+003  0.2067891E+02  0.7546771E-02  0.1732155E+00
         21   -1    0    0  503  501  0.00000000000E+00  0.00000000000E+00  0.19690271162E+02  0.19690271162E+02  0.00000000000E+00 0.  1.
         21   -1    0    0  501  502 -0.00000000000E+00 -0.00000000000E+00 -0.37104662992E+02  0.37104662992E+02  0.00000000000E+00 0.  1.
         21    1    1    2  503  504 -0.14758243467E+02  0.14484879499E+02 -0.26994467797E+02  0.34004687559E+02  0.00000000000E+00 0. -1.
         21    1    1    2  504  502  0.14758243467E+02 -0.14484879499E+02  0.95800759672E+01  0.22790246596E+02  0.00000000000E+00 0. -1.
<mgrwt>
<rscale>  2 0.20678914E+02</rscale>
<asrwt>0</asrwt>
<pdfrwt beam="1">  1       21 0.30292726E-02 0.20678914E+02</pdfrwt>
<pdfrwt beam="2">  1       21 0.57084096E-02 0.20678914E+02</pdfrwt>
<totfact> 0.88618073E+07</totfact>
</mgrwt>
</event>
<event>
 4    1  0.9374408E+003  0.3777242E+02  0.7546771E-02  0.1525274E+00
         21   -1    0    0  503  501  0.00000000000E+00  0.00000000000E+00  0.14683993734E+02  0.14683993734E+02  0.00000000000E+00 0.  1.
         21   -1    0    0  501  502 -0.00000000000E+00 -0.00000000000E+00 -0.21180448449E+03  0.21180448449E+03  0.00000000000E+00 0.  1.
         21    1    1    2  503  504 -0.31244421362E+02 -0.21225974519E+02 -0.18187415429E+03  0.18575511799E+03  0.00000000000E+00 0.  1.
         21    1    1    2  504  502  0.31244421362E+02  0.21225974519E+02 -0.15246336469E+02  0.40733360238E+02  0.00000000000E+00 0.  1.
<mgrwt>
<rscale>  2 0.37772422E+02</rscale>
<asrwt>0</asrwt>
<pdfrwt beam="1">  1       21 0.22590761E-02 0.37772422E+02</pdfrwt>
<pdfrwt beam="2">  1       21 0.32585303E-01 0.37772422E+02</pdfrwt>
<totfact> 0.80264875E+06</totfact>
</mgrwt>
</event>
<event>
 4    1  0.9374408E+003  0.2225218E+02  0.7546771E-02  0.1703927E+00
         21   -1    0    0  503  501  0.00000000000E+00  0.00000000000E+00  0.12188145231E+02  0.12188145231E+02  0.00000000000E+00 0. -1.
         21   -1    0    0  501  502 -0.00000000000E+00 -0.00000000000E+00 -0.11073628922E+03  0.11073628922E+03  0.00000000000E+00 0. -1.
         21    1    1    2  503  504 -0.18215695873E+02  0.12780769642E+02 -0.36909177538E+00  0.22255243821E+02  0.00000000000E+00 0. -1.
         21    1    1    2  504  502  0.18215695873E+02 -0.12780769642E+02 -0.98179052218E+02  0.10066919064E+03  0.00000000000E+00 0. -1.
<mgrwt>
<rscale>  2 0.22252183E+02</rscale>
<asrwt>0</asrwt>
<pdfrwt beam="1">  1       21 0.18750993E-02 0.22252183E+02</pdfrwt>
<pdfrwt beam="2">  1       21 0.17036352E-01 0.22252183E+02</pdfrwt>
<totfact> 0.31108934E+07</totfact>
</mgrwt>
</event>
<event>
 4    1  0.9374408E+003  0.2315814E+02  0.7546771E-02  0.1688959E+00
         21   -1    0    0  502  501  0.00000000000E+00  0.00000000000E+00  0.26161320138E+02  0.26161320138E+02  0.00000000000E+00 0.  1.
         21   -1    0    0  504  502 -0.00000000000E+00 -0.00000000000E+00 -0.55240535993E+02  0.55240535993E+02  0.00000000000E+00 0.  1.
         21    1    1    2  503  501 -0.19991258127E+01 -0.23071690932E+02  0.17737562254E+02  0.29170542353E+02  0.00000000000E+00 0.  1.
         21    1    1    2  504  503  0.19991258127E+01  0.23071690932E+02 -0.46816778109E+02  0.52231313778E+02  0.00000000000E+00 0.  1.
<mgrwt>
<rscale>  2 0.23158140E+02</rscale>
<asrwt>0</asrwt>
<pdfrwt beam="1">  1       21 0.40248185E-02 0.23158140E+02</pdfrwt>
<pdfrwt beam="2">  1       21 0.84985440E-02 0.23158140E+02</pdfrwt>
<totfact> 0.30780556E+07</totfact>
</mgrwt>
</event>
<event>
 4    1  0.9374408E+003  0.2332687E+02  0.7546771E-02  0.1686266E+00
         21   -1    0    0  502  501  0.00000000000E+00  0.00000000000E+00  0.97324187735E+01  0.97324187735E+01  0.00000000000E+00 0. -1.
         21   -1    0    0  503  502 -0.00000000000E+00 -0.00000000000E+00 -0.18175141251E+03  0.18175141251E+03  0.00000000000E+00 0. -1.
         21    1    1    2  503  504  0.46304524374E+01  0.22862672119E+02 -0.63432391784E+01  0.24173943606E+02  0.00000000000E+00 0. -1.
         21    1    1    2  504  501 -0.46304524374E+01 -0.22862672119E+02 -0.16567575456E+03  0.16730988768E+03  0.00000000000E+00 0. -1.
<mgrwt>
<rscale>  2 0.23326870E+02</rscale>
<asrwt>0</asrwt>
<pdfrwt beam="1">  1       21 0.14972954E-02 0.23326870E+02</pdfrwt>
<pdfrwt beam="2">  1       21 0.27961752E-01 0.23326870E+02</pdfrwt>
<totfact> 0.18530630E+07</totfact>
</mgrwt>
</event>
<event>
 4    1  0.9374408E+003  0.3420212E+02  0.7546771E-02  0.1555802E+00
         21   -1    0    0  503  501  0.00000000000E+00  0.00000000000E+00  0.12311748704E+02  0.12311748704E+02  0.00000000000E+00 0. -1.
         21   -1    0    0  501  502 -0.00000000000E+00 -0.00000000000E+00 -0.19017436808E+03  0.19017436808E+03  0.00000000000E+00 0. -1.
         21    1    1    2  503  504 -0.29185362962E+02 -0.17832537883E+02 -0.16054861934E+03  0.16415128385E+03  0.00000000000E+00 0. -1.
         21    1    1    2  504  502  0.29185362962E+02  0.17832537883E+02 -0.17314000037E+02  0.38334832931E+02  0.00000000000E+00 0. -1.
<mgrwt>
<rscale>  2 0.34202117E+02</rscale>
<asrwt>0</asrwt>
<pdfrwt beam="1">  1       21 0.18941152E-02 0.34202117E+02</pdfrwt>
<pdfrwt beam="2">  1       21 0.29257595E-01 0.34202117E+02</pdfrwt>
<totfact> 0.12730098E+07</totfact>
</mgrwt>
</event>
<event>
 4    1  0.9374408E+003  0.2301455E+02  0.7546771E-02  0.1691274E+00
         21   -1    0    0  502  501  0.00000000000E+00  0.00000000000E+00  0.41119039012E+02  0.41119039012E+02  0.00000000000E+00 0. -1.
         21   -1    0    0  503  502 -0.00000000000E+00 -0.00000000000E+00 -0.19371514715E+02  0.19371514715E+02  0.00000000000E+00 0. -1.
         21    1    1    2  503  504  0.22669004288E+02 -0.39731410403E+01 -0.66328828003E+01  0.23951299326E+02  0.00000000000E+00 0. -1.
         21    1    1    2  504  501 -0.22669004288E+02  0.39731410403E+01  0.28380407098E+02  0.36539254401E+02  0.00000000000E+00 0. -1.
<mgrwt>
<rscale>  2 0.23014552E+02</rscale>
<asrwt>0</asrwt>
<pdfrwt beam="1">  1       21 0.63260060E-02 0.23014552E+02</pdfrwt>
<pdfrwt beam="2">  1       21 0.29802330E-02 0.23014552E+02</pdfrwt>
<totfact> 0.79475792E+07</totfact>
</mgrwt>
</event>
<event>
 4    1  0.9374408E+003  0.2102190E+02  0.7546771E-02  0.1725738E+00
         21   -1    0    0  502  501  0.00000000000E+00  0.00000000000E+00  0.57072173321E+03  0.57072173321E+03  0.00000000000E+00 0. -1.
         21   -1    0    0  503  502 -0.00000000000E+00 -0.00000000000E+00 -0.99266518307E+00  0.99266518307E+00  0.00000000000E+00 0. -1.
         21    1    1    2  503  504  0.18211073559E+02 -0.10501280422E+02  0.15079763273E+03  0.15225585745E+03  0.00000000000E+00 0.  1.
         21    1    1    2  504  501 -0.18211073559E+02  0.10501280422E+02  0.41893143529E+03  0.41945854094E+03  0.00000000000E+00 0.  1.
<mgrwt>
<rscale>  2 0.21021896E+02</rscale>
<asrwt>0</asrwt>
<pdfrwt beam="1">  1       21 0.87803081E-01 0.21021896E+02</pdfrwt>
<pdfrwt beam="2">  1       21 0.15271818E-03 0.21021896E+02</pdfrwt>
<totfact> 0.56274998E+07</totfact>
</mgrwt>
</event>
<event>
 4    1  0.9374408E+003  0.2100564E+02  0.7546771E-02  0.1726039E+00
         21   -1    0    0  502  501  0.00000000000E+00  0.00000000000E+00  0.35996832352E+01  0.35996832352E+01  0.00000000000E+00 0.  1.
         21   -1    0    0  504  502 -0.00000000000E+00 -0.00000000000E+00 -0.68341910942E+03  0.68341910942E+03  0.00000000000E+00 0.  1.
         21    1    1    2  503  501  0.86377531352E+01 -0.19147488649E+02 -0.28726969215E+02  0.35587580152E+02  0.00000000000E+00 0.  1.
         21    1    1    2  504  503 -0.86377531352E+01  0.19147488649E+02 -0.65109245697E+03  0.65143121250E+03  0.00000000000E+00 0.  1.
<mgrwt>
<rscale>  2 0.21005644E+02</rscale>
<asrwt>0</asrwt>
<pdfrwt beam="1">  1       21 0.55379719E-03 0.21005644E+02</pdfrwt>
<pdfrwt beam="2">  1       21 0.10514145E+00 0.21005644E+02</pdfrwt>
<totfact> 0.58724094E+06</totfact>
</mgrwt>
</event>
<event>
 4    1  0.9374408E+003  0.3138735E+02  0.7546771E-02  0.1583241E+00
         21   -1    0    0  502  501  0.00000000000E+00  0.00000000000E+00  0.59712821795E+03  0.59712821795E+03  0.00000000000E+00 0.  1.
         21   -1    0    0  503  502 -0.00000000000E+00 -0.00000000000E+00 -0.45680104777E+01  0.45680104777E+01  0.00000000000E+00 0.  1.
         21    1    1    2  503  504  0.28960934912E+02  0.12100822703E+02  0.55822163700E+02  0.64041233758E+02  0.00000000000E+00 0.  1.
         21    1    1    2  504  501 -0.28960934912E+02 -0.12100822703E+02  0.53673804378E+03  0.53765499467E+03  0.00000000000E+00 0.  1.
<mgrwt>
<rscale>  2 0.31387349E+02</rscale>
<asrwt>0</asrwt>
<pdfrwt beam="1">  1       21 0.91865818E-01 0.31387349E+02</pdfrwt>
<pdfrwt beam="2">  1       21 0.70277132E-03 0.31387349E+02</pdfrwt>
<totfact> 0.58464688E+06</totfact>
</mgrwt>
</event>
<event>
 4    1  0.9374408E+003  0.2375872E+02  0.7546771E-02  0.1679499E+00
         21   -1    0    0  502  501  0.00000000000E+00  0.00000000000E+00  0.11867610393E+04  0.11867610393E+04  0.00000000000E+00 0.  1.
         21   -1    0    0  503  502 -0.00000000000E+00 -0.00000000000E+00 -0.95421724835E+00  0.95421724835E+00  0.00000000000E+00 0.  1.
         21    1    1    2  503  504 -0.13828130954E+02  0.19319930110E+02  0.17233903535E+03  0.17396902026E+03  0.00000000000E+00 0.  1.
         21    1    1    2  504  501  0.13828130954E+02 -0.19319930110E+02  0.10134677867E+04  0.10137462363E+04  0.00000000000E+00 0.  1.
<mgrwt>
<rscale>  2 0.23758723E+02</rscale>
<asrwt>0</asrwt>
<pdfrwt beam="1">  1       21 0.18257744E+00 0.23758723E+02</pdfrwt>
<pdfrwt beam="2">  1       21 0.14680360E-03 0.23758723E+02</pdfrwt>
<totfact> 0.11365607E+07</totfact>
</mgrwt>
</event>
<event>
 4    1  0.9374408E+003  0.2020859E+02  0.7546771E-02  0.1741211E+00
         21   -1    0    0  502  501  0.00000000000E+00  0.00000000000E+00  0.10702340941E+02  0.10702340941E+02  0.00000000000E+00 0.  1.
         21   -1    0    0  503  502 -0.00000000000E+00 -0.00000000000E+00 -0.10157552061E+03  0.10157552061E+03  0.00000000000E+00 0.  1.
         21    1    1    2  503  504  0.78008925220E+01 -0.18642243641E+02 -0.10785936486E+01  0.20237354975E+02  0.00000000000E+00 0.  1.
         21    1    1    2  504  501 -0.78008925220E+01  0.18642243641E+02 -0.89794586021E+02  0.92040506576E+02  0.00000000000E+00 0.  1.
<mgrwt>
<rscale>  2 0.20208592E+02</rscale>
<asrwt>0</asrwt>
<pdfrwt beam="1">  1       21 0.16465139E-02 0.20208592E+02</pdfrwt>
<pdfrwt beam="2">  1       21 0.15627004E-01 0.20208592E+02</pdfrwt>
<totfact> 0.42911400E+07</totfact>
</mgrwt>
</event>
<event>
 4    1  0.9374408E+003  0.3498530E+02  0.7546771E-02  0.1548731E+00
         21   -1    0    0  504  501  0.00000000000E+00  0.00000000000E+00  0.73602323629E+03  0.73602323629E+03  0.00000000000E+00 0. -1.
         21   -1    0    0  501  502 -0.00000000000E+00 -0.00000000000E+00 -0.63467957112E+01  0.63467957112E+01  0.00000000000E+00 0. -1.
         21    1    1    2  503  502  0.32261834646E+02 -0.13533119158E+02  0.68370874443E+03  0.68460325628E+03  0.00000000000E+00 0.  1.
         21    1    1    2  504  503 -0.32261834646E+02  0.13533119158E+02  0.45967696149E+02  0.57766775729E+02  0.00000000000E+00 0.  1.
<mgrwt>
<rscale>  2 0.34985301E+02</rscale>
<asrwt>0</asrwt>
<pdfrwt beam="1">  1       21 0.11323428E+00 0.34985301E+02</pdfrwt>
<pdfrwt beam="2">  1       21 0.97643069E-03 0.34985301E+02</pdfrwt>
<totfact> 0.22523472E+06</totfact>
</mgrwt>
</event>
<event>
 4    1  0.9374408E+003  0.3034629E+02  0.7546771E-02  0.1594292E+00
         21   -1    0    0  502  501  0.00000000000E+00  0.00000000000E+00  0.17260848537E+02  0.17260848537E+02  0.00000000000E+00 0. -1.
         21   -1    0    0  503  502 -0.00000000000E+00 -0.00000000000E+00 -0.13553766118E+03  0.13553766118E+03  0.00000000000E+00 0. -1.
         21    1    1    2  503  504 -0.90292399789E+01 -0.28971886373E+02 -0.11863028435E+03  0.12245016023E+03  0.00000000000E+00 0.  1.
         21    1    1    2  504  501  0.90292399789E+01  0.28971886373E+02  0.35347170647E+00  0.30348349491E+02  0.00000000000E+00 0.  1.
<mgrwt>
<rscale>  2 0.30346291E+02</rscale>
<asrwt>0</asrwt>
<pdfrwt beam="1">  1       21 0.26555151E-02 0.30346291E+02</pdfrwt>
<pdfrwt beam="2">  1       21 0.20851948E-01 0.30346291E+02</pdfrwt>
<totfact> 0.13594593E+07</totfact>
</mgrwt>
</event>
<event>
 4    1  0.9374408E+003  0.2253273E+02  0.7546771E-02  0.1699198E+00
         21   -1    0    0  503  501  0.00000000000E+00  0.00000000000E+00  0.41751784307E+01  0.41751784307E+01  0.00000000000E+00 0. -1.
         21   -1    0    0  501  502 -0.00000000000E+00 -0.00000000000E+00 -0.12602786943E+04  0.12602786943E+04  0.00000000000E+00 0. -1.
         21    1    1    2  503  504 -0.11337653337E+02  0.19472581523E+02 -0.27100449321E+02  0.35244264324E+02  0.00000000000E+00 0. -1.
         21    1    1    2  504  502  0.11337653337E+02 -0.19472581523E+02 -0.12290030666E+04  0.12292096084E+04  0.00000000000E+00 0. -1.
<mgrwt>
<rscale>  2 0.22532728E+02</rscale>
<asrwt>0</asrwt>
<pdfrwt beam="1">  1       21 0.64233357E-03 0.22532728E+02</pdfrwt>
<pdfrwt beam="2">  1       21 0.19388950E+00 0.22532728E+02</pdfrwt>
<totfact> 0.11288005E+06</totfact>
</mgrwt>
</event>
<event>
 4    1  0.9374408E+003  0.2005856E+02  0.7546771E-02  0.1744166E+00
         21   -1    0    0  503  501  0.00000000000E+00  0.00000000000E+00  0.16998974100E+02  0.16998974100E+02  0.00000000000E+00 0. -1.
         21   -1    0    0  501  502 -0.00000000000E+00 -0.00000000000E+00 -0.37021613220E+02  0.37021613220E+02  0.00000000000E+00 0. -1.
         21    1    1    2  503  504 -0.30845918071E+01  0.19819968421E+02  0.62100496764E+01  0.20997870649E+02  0.00000000000E+00 0. -1.
         21    1    1    2  504  502  0.30845918071E+01 -0.19819968421E+02 -0.26232688796E+02  0.33022716670E+02  0.00000000000E+00 0. -1.
<mgrwt>
<rscale>  2 0.20058561E+02</rscale>
<asrwt>0</asrwt>
<pdfrwt beam="1">  1       21 0.26152268E-02 0.20058561E+02</pdfrwt>
<pdfrwt beam="2">  1       21 0.56956327E-02 0.20058561E+02</pdfrwt>
<totfact> 0.11060567E+08</totfact>
</mgrwt>
</event>
<event>
 4    1  0.9374408E+003  0.2366582E+02  0.7546771E-02  0.1680939E+00
         21   -1    0    0  503  501  0.00000000000E+00  0.00000000000E+00  0.10779197130E+03  0.10779197130E+03  0.00000000000E+00 0.  1.
         21   -1    0    0  501  502 -0.00000000000E+00 -0.00000000000E+00 -0.78642225551E+01  0.78642225551E+01  0.00000000000E+00 0.  1.
         21    1    1    2  503  504 -0.19886707544E+02  0.12829250805E+02  0.83648700606E+02  0.86932018993E+02  0.00000000000E+00 0. -1.
         21    1    1    2  504  502  0.19886707544E+02 -0.12829250805E+02  0.16279048137E+02  0.28724174860E+02  0.00000000000E+00 0. -1.
<mgrwt>
<rscale>  2 0.23665815E+02</rscale>
<asrwt>0</asrwt>
<pdfrwt beam="1">  1       21 0.16583379E-01 0.23665815E+02</pdfrwt>
<pdfrwt beam="2">  1       21 0.12098805E-02 0.23665815E+02</pdfrwt>
<totfact> 0.64410817E+07</totfact>
</mgrwt>
</event>
<event>
 4    1  0.9374408E+003  0.3007361E+02  0.7546771E-02  0.1597276E+00
         21   -1    0    0  504  501  0.00000000000E+00  0.00000000000E+00  0.22634751321E+01  0.22634751321E+01  0.00000000000E+00 0. -1.
         21   -1    0    0  501  502 -0.00000000000E+00 -0.00000000000E+00 -0.55136919180E+03  0.55136919180E+03  0.00000000000E+00 0. -1.
         21    1    1    2  503  502 -0.31982789084E+01 -0.29903060215E+02 -0.41979808954E+03  0.42087392171E+03  0.00000000000E+00 0. -1.
         21    1    1    2  504  503  0.31982789084E+01  0.29903060215E+02 -0.12930762713E+03  0.13275874522E+03  0.00000000000E+00 0. -1.
<mgrwt>
<rscale>  2 0.30073610E+02</rscale>
<asrwt>0</asrwt>
<pdfrwt beam="1">  1       21 0.34822713E-03 0.30073610E+02</pdfrwt>
<pdfrwt beam="2">  1       21 0.84825985E-01 0.30073610E+02</pdfrwt>
<totfact> 0.19638781E+07</totfact>
</mgrwt>
</event>
<event>
 4    1  0.9374408E+003  0.2019649E+02  0.7546771E-02  0.1741449E+00
         21   -1    0    0  502  501  0.00000000000E+00  0.00000000000E+00  0.36146891993E+03  0.36146891993E+03  0.00000000000E+00 0. -1.
         21   -1    0    0  504  502 -0.00000000000E+00 -0.00000000000E+00 -0.17332001794E+01  0.17332001794E+01  0.00000000000E+00 0. -1.
         21    1    1    2  503  501  0.20097430232E+02  0.19979115520E+01  0.72596629616E+02  0.75353626217E+02  0.00000000000E+00 0. -1.
         21    1    1    2  504  503 -0.20097430232E+02 -0.19979115520E+01  0.28713909013E+03  0.28784849389E+03  0.00000000000E+00 0. -1.
<mgrwt>
<rscale>  2 0.20196494E+02</rscale>
<asrwt>0</asrwt>
<pdfrwt beam="1">  1       21 0.55610543E-01 0.20196494E+02</pdfrwt>
<pdfrwt beam="2">  1       21 0.26664647E-03 0.20196494E+02</pdfrwt>
<totfact> 0.63471241E+07</totfact>
</mgrwt>
</event>
<event>
 4    1  0.9374408E+003  0.6131293E+02  0.7546771E-02  0.1392403E+00
         21   -1    0    0  503  501  0.00000000000E+00  0.00000000000E+00  0.76272965850E+02  0.76272965850E+02  0.00000000000E+00 0. -1.
         21   -1    0    0  501  502 -0.00000000000E+00 -0.00000000000E+00 -0.53235583384E+02  0.53235583384E+02  0.00000000000E+00 0. -1.
         21    1    1    2  503  504 -0.61133483636E+02 -0.46874457562E+01 -0.61165491662E+01  0.61617263351E+02  0.00000000000E+00 0. -1.
         21    1    1    2  504  502  0.61133483636E+02  0.46874457562E+01  0.29153931632E+02  0.67891285882E+02  0.00000000000E+00 0. -1.
<mgrwt>
<rscale>  2 0.61312927E+02</rscale>
<asrwt>0</asrwt>
<pdfrwt beam="1">  1       21 0.11734302E-01 0.61312927E+02</pdfrwt>
<pdfrwt beam="2">  1       21 0.81900897E-02 0.61312927E+02</pdfrwt>
<totfact> 0.65355384E+06</totfact>
</mgrwt>
</event>
<event>
 4    1  0.9374408E+003  0.2596721E+02  0.7546771E-02  0.1647486E+00
         21   -1    0    0  504  501  0.00000000000E+00  0.00000000000E+00  0.55811973018E+02  0.55811973018E+02  0.00000000000E+00 0.  1.
         21   -1    0    0  501  502 -0.00000000000E+00 -0.00000000000E+00 -0.30440434777E+02  0.30440434777E+02  0.00000000000E+00 0.  1.
         21    1    1    2  503  502 -0.10603563779E+02 -0.23703590177E+02 -0.20806056801E+02  0.33274430900E+02  0.00000000000E+00 0.  1.
         21    1    1    2  504  503  0.10603563779E+02  0.23703590177E+02  0.46177595042E+02  0.52977976895E+02  0.00000000000E+00 0.  1.
<mgrwt>
<rscale>  2 0.25967205E+02</rscale>
<asrwt>0</asrwt>
<pdfrwt beam="1">  1       21 0.85864574E-02 0.25967205E+02</pdfrwt>
<pdfrwt beam="2">  1       21 0.46831438E-02 0.25967205E+02</pdfrwt>
<totfact> 0.24422914E+07</totfact>
</mgrwt>
</event>
<event>
 4    1  0.9374408E+003  0.2333985E+02  0.7546771E-02  0.1686060E+00
         21   -1    0    0  504  501  0.00000000000E+00  0.00000000000E+00  0.41127747166E+02  0.41127747166E+02  0.00000000000E+00 0.  1.
         21   -1    0    0  501  502 -0.00000000000E+00 -0.00000000000E+00 -0.18378113419E+02  0.18378113419E+02  0.00000000000E+00 0.  1.
         21    1    1    2  503  502  0.18662766703E+01 -0.23265120060E+02 -0.43489858066E+01  0.23741576981E+02  0.00000000000E+00 0.  1.
         21    1    1    2  504  503 -0.18662766703E+01  0.23265120060E+02  0.27098619553E+02  0.35764283604E+02  0.00000000000E+00 0.  1.
<mgrwt>
<rscale>  2 0.23339854E+02</rscale>
<asrwt>0</asrwt>
<pdfrwt beam="1">  1       21 0.63273457E-02 0.23339854E+02</pdfrwt>
<pdfrwt beam="2">  1       21 0.28274021E-02 0.23339854E+02</pdfrwt>
<totfact> 0.86569117E+07</totfact>
</mgrwt>
</event>
<event>
 4    1  0.9374408E+003  0.2629509E+02  0.7546771E-02  0.1643068E+00
         21   -1    0    0  503  501  0.00000000000E+00  0.00000000000E+00  0.40701997369E+03  0.40701997369E+03  0.00000000000E+00 0.  1.
         21   -1    0    0  501  502 -0.00000000000E+00 -0.00000000000E+00 -0.17511752498E+01  0.17511752498E+01  0.00000000000E+00 0.  1.
         21    1    1    2  503  504  0.20688629156E+01 -0.26213580712E+02  0.23799227785E+03  0.23944050685E+03  0.00000000000E+00 0. -1.
         21    1    1    2  504  502 -0.20688629156E+01  0.26213580712E+02  0.16727652059E+03  0.16933064208E+03  0.00000000000E+00 0. -1.
<mgrwt>
<rscale>  2 0.26295095E+02</rscale>
<asrwt>0</asrwt>
<pdfrwt beam="1">  1       21 0.62618382E-01 0.26295095E+02</pdfrwt>
<pdfrwt beam="2">  1       21 0.26941190E-03 0.26295095E+02</pdfrwt>
<totfact> 0.52510405E+07</totfact>
</mgrwt>
</event>
<event>
 4    1  0.9374408E+003  0.4078510E+02  0.7546771E-02  0.1502512E+00
         21   -1    0    0  502  501  0.00000000000E+00  0.00000000000E+00  0.18024642481E+04  0.18024642481E+04  0.00000000000E+00 0.  1.
         21   -1    0    0  504  502 -0.00000000000E+00 -0.00000000000E+00 -0.36627054312E+01  0.36627054312E+01  0.00000000000E+00 0.  1.
         21    1    1    2  503  501 -0.39421289206E+02  0.10458800791E+02  0.11834830567E+03  0.12517885608E+03  0.00000000000E+00 0.  1.
         21    1    1    2  504  503  0.39421289206E+02 -0.10458800791E+02  0.16804532370E+04  0.16809480975E+04  0.00000000000E+00 0.  1.
<mgrwt>
<rscale>  2 0.40785102E+02</rscale>
<asrwt>0</asrwt>
<pdfrwt beam="1">  1       21 0.27730148E+00 0.40785102E+02</pdfrwt>
<pdfrwt beam="2">  1       21 0.56349458E-03 0.40785102E+02</pdfrwt>
<totfact> 0.49262692E+05</totfact>
</mgrwt>
</event>
<event>
 4    1  0.9374408E+003  0.2907886E+02  0.7546771E-02  0.1608500E+00
         21   -1    0    0  504  501  0.00000000000E+00  0.00000000000E+00  0.81792621966E+02  0.81792621966E+02  0.00000000000E+00 0.  1.
         21   -1    0    0  501  502 -0.00000000000E+00 -0.00000000000E+00 -0.12469063481E+02  0.12469063481E+02  0.00000000000E+00 0.  1.
         21    1    1    2  503  502  0.22352023820E+02  0.18600194640E+02  0.15177856003E+02  0.32801639019E+02  0.00000000000E+00 0. -1.
         21    1    1    2  504  503 -0.22352023820E+02 -0.18600194640E+02  0.54145702483E+02  0.61460046427E+02  0.00000000000E+00 0. -1.
<mgrwt>
<rscale>  2 0.29078862E+02</rscale>
<asrwt>0</asrwt>
<pdfrwt beam="1">  1       21 0.12583480E-01 0.29078862E+02</pdfrwt>
<pdfrwt beam="2">  1       21 0.19183175E-02 0.29078862E+02</pdfrwt>
<totfact> 0.53618244E+07</totfact>
</mgrwt>
</event>
<event>
 4    1  0.9374408E+003  0.3391566E+02  0.7546771E-02  0.1558446E+00
         21   -1    0    0  502  501  0.00000000000E+00  0.00000000000E+00  0.79482255077E+01  0.79482255077E+01  0.00000000000E+00 0.  1.
         21   -1    0    0  503  502 -0.00000000000E+00 -0.00000000000E+00 -0.18889940931E+03  0.18889940931E+03  0.00000000000E+00 0.  1.
         21    1    1    2  503  504 -0.33360735579E+02 -0.61101185272E+01 -0.13807392528E+03  0.14217834248E+03  0.00000000000E+00 0.  1.
         21    1    1    2  504  501  0.33360735579E+02  0.61101185272E+01 -0.42877258518E+02  0.54669292338E+02  0.00000000000E+00 0.  1.
<mgrwt>
<rscale>  2 0.33915663E+02</rscale>
<asrwt>0</asrwt>
<pdfrwt beam="1">  1       21 0.12228038E-02 0.33915663E+02</pdfrwt>
<pdfrwt beam="2">  1       21 0.29061450E-01 0.33915663E+02</pdfrwt>
<totfact> 0.25267158E+07</totfact>
</mgrwt>
</event>
<event>
 4    1  0.9374408E+003  0.2161436E+02  0.7546771E-02  0.1715008E+00
         21   -1    0    0  504  501  0.00000000000E+00  0.00000000000E+00  0.11015520828E+03  0.11015520828E+03  0.00000000000E+00 0.  1.
         21   -1    0    0  501  502 -0.00000000000E+00 -0.00000000000E+00 -0.63610979173E+01  0.63610979173E+01  0.00000000000E+00 0.  1.
         21    1    1    2  503  502  0.17917123103E+02 -0.12089559741E+02  0.85529388095E+02  0.88218234979E+02  0.00000000000E+00 0. -1.
         21    1    1    2  504  503 -0.17917123103E+02  0.12089559741E+02  0.18264722263E+02  0.28298071213E+02  0.00000000000E+00 0. -1.
<mgrwt>
<rscale>  2 0.21614365E+02</rscale>
<asrwt>0</asrwt>
<pdfrwt beam="1">  1       21 0.16946954E-01 0.21614365E+02</pdfrwt>
<pdfrwt beam="2">  1       21 0.97863053E-03 0.21614365E+02</pdfrwt>
<totfact> 0.83331599E+07</totfact>
</mgrwt>
</event>
<event>
 4    1  0.9374408E+003  0.2327360E+02  0.7546771E-02  0.1687113E+00
         21   -1    0    0  504  501  0.00000000000E+00  0.00000000000E+00  0.99594236046E+02  0.99594236046E+02  0.00000000000E+00 0.  1.
         21   -1    0    0  501  502 -0.00000000000E+00 -0.00000000000E+00 -0.54786614053E+01  0.54786614053E+01  0.00000000000E+00 0.  1.
         21    1    1    2  503  502  0.22518684330E+02 -0.58795615027E+01  0.51546230300E+02  0.56556823156E+02  0.00000000000E+00 0.  1.
         21    1    1    2  504  503 -0.22518684330E+02  0.58795615027E+01  0.42569344341E+02  0.48516074295E+02  0.00000000000E+00 0.  1.
<mgrwt>
<rscale>  2 0.23273599E+02</rscale>
<asrwt>0</asrwt>
<pdfrwt beam="1">  1       21 0.15322189E-01 0.23273599E+02</pdfrwt>
<pdfrwt beam="2">  1       21 0.84287106E-03 0.23273599E+02</pdfrwt>
<totfact> 0.12641621E+08</totfact>
</mgrwt>
</event>
<event>
 4    1  0.9374408E+003  0.2754097E+02  0.7546771E-02  0.1626977E+00
         21   -1    0    0  503  501  0.00000000000E+00  0.00000000000E+00  0.28723245164E+03  0.28723245164E+03  0.00000000000E+00 0. -1.
         21   -1    0    0  501  502 -0.00000000000E+00 -0.00000000000E+00 -0.29187596974E+01  0.29187596974E+01  0.00000000000E+00 0. -1.
         21    1    1    2  503  504  0.80955977939E+01 -0.26324257853E+02  0.18693185071E+03  0.18894978716E+03  0.00000000000E+00 0. -1.
         21    1    1    2  504  502 -0.80955977939E+01  0.26324257853E+02  0.97381841231E+02  0.10120142418E+03  0.00000000000E+00 0. -1.
<mgrwt>
<rscale>  2 0.27540974E+02</rscale>
<asrwt>0</asrwt>
<pdfrwt beam="1">  1       21 0.44189586E-01 0.27540974E+02</pdfrwt>
<pdfrwt beam="2">  1       21 0.44904018E-03 0.27540974E+02</pdfrwt>
<totfact> 0.49783131E+07</totfact>
</mgrwt>
</event>
<event>
 4    1  0.9374408E+003  0.3434960E+02  0.7546771E-02  0.1554453E+00
         21   -1    0    0  502  501  0.00000000000E+00  0.00000000000E+00  0.26546345976E+02  0.26546345976E+02  0.00000000000E+00 0. -1.
         21   -1    0    0  504  502 -0.00000000000E+00 -0.00000000000E+00 -0.13113880713E+03  0.13113880713E+03  0.00000000000E+00 0. -1.
         21    1    1    2  503  501  0.25839323292E+02 -0.22632374696E+02 -0.11640024182E+03  0.12136272619E+03  0.00000000000E+00 0. -1.
         21    1    1    2  504  503 -0.25839323292E+02  0.22632374696E+02  0.11807780669E+02  0.36322426913E+02  0.00000000000E+00 0. -1.
<mgrwt>
<rscale>  2 0.34349600E+02</rscale>
<asrwt>0</asrwt>
<pdfrwt beam="1">  1       21 0.40840532E-02 0.34349600E+02</pdfrwt>
<pdfrwt beam="2">  1       21 0.20175201E-01 0.34349600E+02</pdfrwt>
<totfact> 0.74323579E+06</totfact>
</mgrwt>
</event>
<event>
 4    1  0.9374408E+003  0.2140069E+02  0.7546771E-02  0.1718828E+00
         21   -1    0    0  502  501  0.00000000000E+00  0.00000000000E+00  0.11275034595E+03  0.11275034595E+03  0.00000000000E+00 0. -1.
         21   -1    0    0  504  502 -0.00000000000E+00 -0.00000000000E+00 -0.64995399307E+01  0.64995399307E+01  0.00000000000E+00 0. -1.
         21    1    1    2  503  501  0.58879270804E+01 -0.20574782570E+02  0.89639834752E+02  0.92159043709E+02  0.00000000000E+00 0.  1.
         21    1    1    2  504  503 -0.58879270804E+01  0.20574782570E+02  0.16610971269E+02  0.27090842172E+02  0.00000000000E+00 0.  1.
<mgrwt>
<rscale>  2 0.21400686E+02</rscale>
<asrwt>0</asrwt>
<pdfrwt beam="1">  1       21 0.17346206E-01 0.21400686E+02</pdfrwt>
<pdfrwt beam="2">  1       21 0.99992931E-03 0.21400686E+02</pdfrwt>
<totfact> 0.77314606E+07</totfact>
</mgrwt>
</event>
<event>
 4    1  0.9374408E+003  0.2595766E+02  0.7546771E-02  0.1647616E+00
         21   -1    0    0  504  501  0.00000000000E+00  0.00000000000E+00  0.23254509890E+03  0.23254509890E+03  0.00000000000E+00 0. -1.
         21   -1    0    0  501  502 -0.00000000000E+00 -0.00000000000E+00 -0.57731252130E+01  0.57731252130E+01  0.00000000000E+00 0. -1.
         21    1    1    2  503  502 -0.24923518918E+02  0.72538484335E+01  0.19748437801E+03  0.19918303058E+03  0.00000000000E+00 0.  1.
         21    1    1    2  504  503  0.24923518918E+02 -0.72538484335E+01  0.29287595672E+02  0.39135193529E+02  0.00000000000E+00 0.  1.
<mgrwt>
<rscale>  2 0.25957660E+02</rscale>
<asrwt>0</asrwt>
<pdfrwt beam="1">  1       21 0.35776162E-01 0.25957660E+02</pdfrwt>
<pdfrwt beam="2">  1       21 0.88817329E-03 0.25957660E+02</pdfrwt>
<totfact> 0.26535562E+07</totfact>
</mgrwt>
</event>
<event>
 4    1  0.9374408E+003  0.2091197E+02  0.7546771E-02  0.1727778E+00
         21   -1    0    0  504  501  0.00000000000E+00  0.00000000000E+00  0.21818034223E+00  0.21818034223E+00  0.00000000000E+00 0. -1.
         21   -1    0    0  501  502 -0.00000000000E+00 -0.00000000000E+00 -0.20469500459E+04  0.20469500459E+04  0.00000000000E+00 0. -1.
         21    1    1    2  503  502 -0.20036008251E+02 -0.59890713105E+01 -0.11710234256E+04  0.11712101322E+04  0.00000000000E+00 0. -1.
         21    1    1    2  504  503  0.20036008251E+02  0.59890713105E+01 -0.87570843998E+03  0.87595809401E+03  0.00000000000E+00 0. -1.
<mgrwt>
<rscale>  2 0.20911973E+02</rscale>
<asrwt>0</asrwt>
<pdfrwt beam="1">  1       21 0.33567567E-04 0.20911973E+02</pdfrwt>
<pdfrwt beam="2">  1       21 0.31490263E+00 0.20911973E+02</pdfrwt>
<totfact> 0.19149011E+07</totfact>
</mgrwt>
</event>
<event>
 4    1  0.9374408E+003  0.4481262E+02  0.7546771E-02  0.1475515E+00
         21   -1    0    0  502  501  0.00000000000E+00  0.00000000000E+00  0.12294930513E+02  0.12294930513E+02  0.00000000000E+00 0.  1.
         21   -1    0    0  503  502 -0.00000000000E+00 -0.00000000000E+00 -0.40097042669E+03  0.40097042669E+03  0.00000000000E+00 0.  1.
         21    1    1    2  503  504  0.44374712586E+02 -0.62494710279E+01 -0.35263447375E+02  0.57023519060E+02  0.00000000000E+00 0. -1.
         21    1    1    2  504  501 -0.44374712586E+02  0.62494710279E+01 -0.35341204880E+03  0.35624183814E+03  0.00000000000E+00 0. -1.
<mgrwt>
<rscale>  2 0.44812621E+02</rscale>
<asrwt>0</asrwt>
<pdfrwt beam="1">  1       21 0.18915279E-02 0.44812621E+02</pdfrwt>
<pdfrwt beam="2">  1       21 0.61687752E-01 0.44812621E+02</pdfrwt>
<totfact> 0.30858865E+06</totfact>
</mgrwt>
</event>
<event>
 4    1  0.9374408E+003  0.5133702E+02  0.7546771E-02  0.1438261E+00
         21   -1    0    0  502  501  0.00000000000E+00  0.00000000000E+00  0.18577092452E+01  0.18577092452E+01  0.00000000000E+00 0.  1.
         21   -1    0    0  504  502 -0.00000000000E+00 -0.00000000000E+00 -0.16803506844E+04  0.16803506844E+04  0.00000000000E+00 0.  1.
         21    1    1    2  503  501 -0.46966463804E+02  0.20727781415E+02 -0.50732929972E+03  0.50992009963E+03  0.00000000000E+00 0. -1.
         21    1    1    2  504  503  0.46966463804E+02 -0.20727781415E+02 -0.11711636754E+04  0.11722882940E+04  0.00000000000E+00 0. -1.
<mgrwt>
<rscale>  2 0.51337020E+02</rscale>
<asrwt>0</asrwt>
<pdfrwt beam="1">  1       21 0.28580330E-03 0.51337020E+02</pdfrwt>
<pdfrwt beam="2">  1       21 0.25851379E+00 0.51337020E+02</pdfrwt>
<totfact> 0.16868229E+06</totfact>
</mgrwt>
</event>
<event>
 4    1  0.9374408E+003  0.2660593E+02  0.7546771E-02  0.1638952E+00
         21   -1    0    0  503  501  0.00000000000E+00  0.00000000000E+00  0.25163737827E+02  0.25163737827E+02  0.00000000000E+00 0.  1.
         21   -1    0    0  501  502 -0.00000000000E+00 -0.00000000000E+00 -0.38061121861E+02  0.38061121861E+02  0.00000000000E+00 0.  1.
         21    1    1    2  503  504 -0.24905352895E+02 -0.93594370303E+01 -0.22595961983E+02  0.34906348453E+02  0.00000000000E+00 0.  1.
         21    1    1    2  504  502  0.24905352895E+02  0.93594370303E+01  0.96985779490E+01  0.28318511236E+02  0.00000000000E+00 0.  1.
<mgrwt>
<rscale>  2 0.26605933E+02</rscale>
<asrwt>0</asrwt>
<pdfrwt beam="1">  1       21 0.38713443E-02 0.26605933E+02</pdfrwt>
<pdfrwt beam="2">  1       21 0.58555572E-02 0.26605933E+02</pdfrwt>
<totfact> 0.62004736E+07</totfact>
</mgrwt>
</event>
<event>
 4    1  0.9374408E+003  0.2848141E+02  0.7546771E-02  0.1615508E+00
         21   -1    0    0  503  501  0.00000000000E+00  0.00000000000E+00  0.93088707552E+02  0.93088707552E+02  0.00000000000E+00 0.  1.
         21   -1    0    0  501  502 -0.00000000000E+00 -0.00000000000E+00 -0.20414116601E+02  0.20414116601E+02  0.00000000000E+00 0.  1.
         21    1    1    2  503  504  0.59490767785E+01 -0.27853169536E+02 -0.66265718852E+01  0.29242127534E+02  0.00000000000E+00 0. -1.
         21    1    1    2  504  502 -0.59490767785E+01  0.27853169536E+02  0.79301162835E+02  0.84260696619E+02  0.00000000000E+00 0. -1.
<mgrwt>
<rscale>  2 0.28481407E+02</rscale>
<asrwt>0</asrwt>
<pdfrwt beam="1">  1       21 0.14321339E-01 0.28481407E+02</pdfrwt>
<pdfrwt beam="2">  1       21 0.31406334E-02 0.28481407E+02</pdfrwt>
<totfact> 0.19861039E+07</totfact>
</mgrwt>
</event>
<event>
 4    1  0.9374408E+003  0.2464461E+02  0.7546771E-02  0.1666160E+00
         21   -1    0    0  502  501  0.00000000000E+00  0.00000000000E+00  0.14602406812E+04  0.14602406812E+04  0.00000000000E+00 0.  1.
         21   -1    0    0  504  502 -0.00000000000E+00 -0.00000000000E+00 -0.45300547834E+00  0.45300547834E+00  0.00000000000E+00 0.  1.
         21    1    1    2  503  501 -0.22618423534E+02  0.97859043308E+01  0.52095247658E+03  0.52153508019E+03  0.00000000000E+00 0. -1.
         21    1    1    2  504  503  0.22618423534E+02 -0.97859043308E+01  0.93883519912E+03  0.93915860647E+03  0.00000000000E+00 0. -1.
<mgrwt>
<rscale>  2 0.24644614E+02</rscale>
<asrwt>0</asrwt>
<pdfrwt beam="1">  1       21 0.22464864E+00 0.24644614E+02</pdfrwt>
<pdfrwt beam="2">  1       21 0.69694320E-04 0.24644614E+02</pdfrwt>
<totfact> 0.19262210E+07</totfact>
</mgrwt>
</event>
<event>
 4    1  0.9374408E+003  0.2038499E+02  0.7546771E-02  0.1737779E+00
         21   -1    0    0  503  501  0.00000000000E+00  0.00000000000E+00  0.28605266873E+00  0.28605266873E+00  0.00000000000E+00 0. -1.
         21   -1    0    0  501  502 -0.00000000000E+00 -0.00000000000E+00 -0.19765635809E+04  0.19765635809E+04  0.00000000000E+00 0. -1.
         21    1    1    2  503  504  0.20384984376E+02  0.11289032811E-01 -0.14969993269E+04  0.14971381140E+04  0.00000000000E+00 0. -1.
         21    1    1    2  504  502 -0.20384984376E+02 -0.11289032811E-01 -0.47927820136E+03  0.47971151958E+03  0.00000000000E+00 0. -1.
<mgrwt>
<rscale>  2 0.20384988E+02</rscale>
<asrwt>0</asrwt>
<pdfrwt beam="1">  1       21 0.44007024E-04 0.20384988E+02</pdfrwt>
<pdfrwt beam="2">  1       21 0.30409416E+00 0.20384988E+02</pdfrwt>
<totfact> 0.14741386E+07</totfact>
</mgrwt>
</event>
<event>
 4    1  0.9374408E+003  0.2128493E+02  0.7546771E-02  0.1720920E+00
         21   -1    0    0  503  501  0.00000000000E+00  0.00000000000E+00  0.44652949849E+03  0.44652949849E+03  0.00000000000E+00 0.  1.
         21   -1    0    0  501  502 -0.00000000000E+00 -0.00000000000E+00 -0.44105915320E+01  0.44105915320E+01  0.00000000000E+00 0.  1.
         21    1    1    2  503  504 -0.11419399858E+02  0.17962333657E+02  0.41890388546E+03  0.41944429114E+03  0.00000000000E+00 0.  1.
         21    1    1    2  504  502  0.11419399858E+02 -0.17962333657E+02  0.23215021497E+02  0.31495798873E+02  0.00000000000E+00 0.  1.
<mgrwt>
<rscale>  2 0.21284927E+02</rscale>
<asrwt>0</asrwt>
<pdfrwt beam="1">  1       21 0.68696810E-01 0.21284927E+02</pdfrwt>
<pdfrwt beam="2">  1       21 0.67855289E-03 0.21284927E+02</pdfrwt>
<totfact> 0.10718822E+07</totfact>
</mgrwt>
</event>
<event>
 4    1  0.9374408E+003  0.2397950E+02  0.7546771E-02  0.1676108E+00
         21   -1    0    0  504  501  0.00000000000E+00  0.00000000000E+00  0.87770536068E+02  0.87770536068E+02  0.00000000000E+00 0. -1.
         21   -1    0    0  501  502 -0.00000000000E+00 -0.00000000000E+00 -0.86831757867E+01  0.86831757867E+01  0.00000000000E+00 0. -1.
         21    1    1    2  503  502 -0.20676182408E+02 -0.12145441885E+02  0.15647713241E+02  0.28633323370E+02  0.00000000000E+00 0.  1.
         21    1    1    2  504  503  0.20676182408E+02  0.12145441885E+02  0.63439647041E+02  0.67820388484E+02  0.00000000000E+00 0.  1.
<mgrwt>
<rscale>  2 0.23979497E+02</rscale>
<asrwt>0</asrwt>
<pdfrwt beam="1">  1       21 0.13503159E-01 0.23979497E+02</pdfrwt>
<pdfrwt beam="2">  1       21 0.13358733E-02 0.23979497E+02</pdfrwt>
<totfact> 0.78974307E+07</totfact>
</mgrwt>
</event>
<event>
 4    1  0.9374408E+003  0.2199192E+02  0.7546771E-02  0.1708392E+00
         21   -1    0    0  502  501  0.00000000000E+00  0.00000000000E+00  0.64444796604E+00  0.64444796604E+00  0.00000000000E+00 0. -1.
         21   -1    0    0  503  502 -0.00000000000E+00 -0.00000000000E+00 -0.96775335564E+03  0.96775335564E+03  0.00000000000E+00 0. -1.
         21    1    1    2  503  504  0.15807118304E+02 -0.15289847321E+02 -0.25412663712E+03  0.25507644367E+03  0.00000000000E+00 0. -1.
         21    1    1    2  504  501 -0.15807118304E+02  0.15289847321E+02 -0.71298227055E+03  0.71332135993E+03  0.00000000000E+00 0. -1.
<mgrwt>
<rscale>  2 0.21991917E+02</rscale>
<asrwt>0</asrwt>
<pdfrwt beam="1">  1       21 0.99145573E-04 0.21991917E+02</pdfrwt>
<pdfrwt beam="2">  1       21 0.14888553E+00 0.21991917E+02</pdfrwt>
<totfact> 0.32276536E+07</totfact>
</mgrwt>
</event>
<event>
 4    1  0.9374408E+003  0.2306893E+02  0.7546771E-02  0.1690395E+00
         21   -1    0    0  502  501  0.00000000000E+00  0.00000000000E+00  0.47085293424E+01  0.47085293424E+01  0.00000000000E+00 0.  1.
         21   -1    0    0  504  502 -0.00000000000E+00 -0.00000000000E+00 -0.20916831297E+03  0.20916831297E+03  0.00000000000E+00 0.  1.
         21    1    1    2  503  501 -0.20038270337E+02 -0.11429936645E+02 -0.29728199417E+02  0.37628999061E+02  0.00000000000E+00 0.  1.
         21    1    1    2  504  503  0.20038270337E+02  0.11429936645E+02 -0.17473158421E+03  0.17624784325E+03  0.00000000000E+00 0.  1.
<mgrwt>
<rscale>  2 0.23068934E+02</rscale>
<asrwt>0</asrwt>
<pdfrwt beam="1">  1       21 0.72438892E-03 0.23068934E+02</pdfrwt>
<pdfrwt beam="2">  1       21 0.32179750E-01 0.23068934E+02</pdfrwt>
<totfact> 0.42671801E+07</totfact>
</mgrwt>
</event>
<event>
 4    1  0.9374408E+003  0.2348120E+02  0.7546771E-02  0.1683827E+00
         21   -1    0    0  502  501  0.00000000000E+00  0.00000000000E+00  0.62719894919E+02  0.62719894919E+02  0.00000000000E+00 0. -1.
         21   -1    0    0  504  502 -0.00000000000E+00 -0.00000000000E+00 -0.91135593361E+01  0.91135593361E+01  0.00000000000E+00 0. -1.
         21    1    1    2  503  501 -0.22954532667E+02  0.49453367468E+01  0.20045498303E+02  0.30873757914E+02  0.00000000000E+00 0.  1.
         21    1    1    2  504  503  0.22954532667E+02 -0.49453367468E+01  0.33560837279E+02  0.40959696341E+02  0.00000000000E+00 0.  1.
<mgrwt>
<rscale>  2 0.23481204E+02</rscale>
<asrwt>0</asrwt>
<pdfrwt beam="1">  1       21 0.96492143E-02 0.23481204E+02</pdfrwt>
<pdfrwt beam="2">  1       21 0.14020861E-02 0.23481204E+02</pdfrwt>
<totfact> 0.12791840E+08</totfact>
</mgrwt>
</event>
<event>
 4    1  0.9374408E+003  0.2628004E+02  0.7546771E-02  0.1643269E+00
         21   -1    0    0  503  501  0.00000000000E+00  0.00000000000E+00  0.62083458947E+01  0.62083458947E+01  0.00000000000E+00 0.  1.
         21   -1    0    0  501  502 -0.00000000000E+00 -0.00000000000E+00 -0.16933994131E+03  0.16933994131E+03  0.00000000000E+00 0.  1.
         21    1    1    2  503  504  0.75016102788E+01  0.25186626013E+02 -0.13297730812E+03  0.13554927060E+03  0.00000000000E+00 0.  1.
         21    1    1    2  504  502 -0.75016102788E+01 -0.25186626013E+02 -0.30154287297E+02  0.39999016601E+02  0.00000000000E+00 0.  1.
<mgrwt>
<rscale>  2 0.26280036E+02</rscale>
<asrwt>0</asrwt>
<pdfrwt beam="1">  1       21 0.95513008E-03 0.26280036E+02</pdfrwt>
<pdfrwt beam="2">  1       21 0.26052300E-01 0.26280036E+02</pdfrwt>
<totfact> 0.42651611E+07</totfact>
</mgrwt>
</event>
<event>
 4    1  0.9374408E+003  0.2118428E+02  0.7546771E-02  0.1722754E+00
         21   -1    0    0  502  501  0.00000000000E+00  0.00000000000E+00  0.64517719126E+03  0.64517719126E+03  0.00000000000E+00 0. -1.
         21   -1    0    0  504  502 -0.00000000000E+00 -0.00000000000E+00 -0.90354000139E+00  0.90354000139E+00  0.00000000000E+00 0. -1.
         21    1    1    2  503  501  0.88561951086E+00  0.21165756751E+02  0.47711516963E+03  0.47758523707E+03  0.00000000000E+00 0. -1.
         21    1    1    2  504  503 -0.88561951086E+00 -0.21165756751E+02  0.16715848163E+03  0.16849549419E+03  0.00000000000E+00 0. -1.
<mgrwt>
<rscale>  2 0.21184277E+02</rscale>
<asrwt>0</asrwt>
<pdfrwt beam="1">  1       21 0.99257661E-01 0.21184277E+02</pdfrwt>
<pdfrwt beam="2">  1       21 0.13900667E-03 0.21184277E+02</pdfrwt>
<totfact> 0.49559916E+07</totfact>
</mgrwt>
</event>
<event>
 4    1  0.9374408E+003  0.2116103E+02  0.7546771E-02  0.1723179E+00
         21   -1    0    0  504  501  0.00000000000E+00  0.00000000000E+00  0.16852920474E+04  0.16852920474E+04  0.00000000000E+00 0.  1.
         21   -1    0    0  501  502 -0.00000000000E+00 -0.00000000000E+00 -0.31109827841E+00  0.31109827841E+00  0.00000000000E+00 0.  1.
         21    1    1    2  503  502  0.19740467304E+02 -0.76225506061E+01  0.11644310412E+04  0.11646233035E+04  0.00000000000E+00 0. -1.
         21    1    1    2  504  503 -0.19740467304E+02  0.76225506061E+01  0.52054990796E+03  0.52097984222E+03  0.00000000000E+00 0. -1.
<mgrwt>
<rscale>  2 0.21161033E+02</rscale>
<asrwt>0</asrwt>
<pdfrwt beam="1">  1       21 0.25926839E+00 0.21161033E+02</pdfrwt>
<pdfrwt beam="2">  1       21 0.47862623E-04 0.21161033E+02</pdfrwt>
<totfact> 0.21550954E+07</totfact>
</mgrwt>
</event>
<event>
 4    1  0.9374408E+003  0.2002837E+02  0.7546771E-02  0.1744765E+00
         21   -1    0    0  504  501  0.00000000000E+00  0.00000000000E+00  0.35619864194E+02  0.35619864194E+02  0.00000000000E+00 0.  1.
         21   -1    0    0  501  502 -0.00000000000E+00 -0.00000000000E+00 -0.13687492501E+02  0.13687492501E+02  0.00000000000E+00 0.  1.
         21    1    1    2  503  502 -0.95796242422E+01 -0.17588814385E+02  0.58712054232E+00  0.20036973390E+02  0.00000000000E+00 0. -1.
         21    1    1    2  504  503  0.95796242422E+01  0.17588814385E+02  0.21345251151E+02  0.29270383304E+02  0.00000000000E+00 0. -1.
<mgrwt>
<rscale>  2 0.20028370E+02</rscale>
<asrwt>0</asrwt>
<pdfrwt beam="1">  1       21 0.54799790E-02 0.20028370E+02</pdfrwt>
<pdfrwt beam="2">  1       21 0.21057681E-02 0.20028370E+02</pdfrwt>
<totfact> 0.16393266E+08</totfact>
</mgrwt>
</event>
<event>
 4    1  0.9374408E+003  0.3088976E+02  0.7546771E-02  0.1588457E+00
         21   -1    0    0  502  501  0.00000000000E+00  0.00000000000E+00  0.12065056774E+02  0.12065056774E+02  0.00000000000E+00 0.  1.
         21   -1    0    0  503  502 -0.00000000000E+00 -0.00000000000E+00 -0.12821150312E+03  0.12821150312E+03  0.00000000000E+00 0.  1.
         21    1    1    2  503  504  0.24848907307E+02  0.18349634696E+02 -0.14657699405E+02  0.34191014019E+02  0.00000000000E+00 0.  1.
         21    1    1    2  504  501 -0.24848907307E+02 -0.18349634696E+02 -0.10148874694E+03  0.10608554588E+03  0.00000000000E+00 0.  1.
<mgrwt>
<rscale>  2 0.30889760E+02</rscale>
<asrwt>0</asrwt>
<pdfrwt beam="1">  1       21 0.18561626E-02 0.30889760E+02</pdfrwt>
<pdfrwt beam="2">  1       21 0.19724846E-01 0.30889760E+02</pdfrwt>
<totfact> 0.26265352E+07</totfact>
</mgrwt>
</event>
<event>
 4    1  0.9374408E+003  0.2553917E+02  0.7546771E-02  0.1653376E+00
         21   -1    0    0  503  501  0.00000000000E+00  0.00000000000E+00  0.36632939711E+03  0.36632939711E+03  0.00000000000E+00 0.  1.
         21   -1    0    0  501  502 -0.00000000000E+00 -0.00000000000E+00 -0.23688258125E+01  0.23688258125E+01  0.00000000000E+00 0.  1.
         21    1    1    2  503  504  0.22131257180E+02 -0.12745848691E+02  0.27385240340E+03  0.27504070254E+03  0.00000000000E+00 0. -1.
         21    1    1    2  504  502 -0.22131257180E+02  0.12745848691E+02  0.90108167898E+02  0.93657520387E+02  0.00000000000E+00 0. -1.
<mgrwt>
<rscale>  2 0.25539170E+02</rscale>
<asrwt>0</asrwt>
<pdfrwt beam="1">  1       21 0.56358324E-01 0.25539170E+02</pdfrwt>
<pdfrwt beam="2">  1       21 0.36443503E-03 0.25539170E+02</pdfrwt>
<totfact> 0.41420798E+07</totfact>
</mgrwt>
</event>
<event>
 4    1  0.9374408E+003  0.2353849E+02  0.7546771E-02  0.1682927E+00
         21   -1    0    0  503  501  0.00000000000E+00  0.00000000000E+00  0.86326932560E+02  0.86326932560E+02  0.00000000000E+00 0.  1.
         21   -1    0    0  501  502 -0.00000000000E+00 -0.00000000000E+00 -0.83622262035E+01  0.83622262035E+01  0.00000000000E+00 0.  1.
         21    1    1    2  503  504  0.22026488401E+02  0.83002608094E+01  0.61810162852E+02  0.66140432056E+02  0.00000000000E+00 0. -1.
         21    1    1    2  504  502 -0.22026488401E+02 -0.83002608094E+01  0.16154543504E+02  0.28548726707E+02  0.00000000000E+00 0. -1.
<mgrwt>
<rscale>  2 0.23538490E+02</rscale>
<asrwt>0</asrwt>
<pdfrwt beam="1">  1       21 0.13281066E-01 0.23538490E+02</pdfrwt>
<pdfrwt beam="2">  1       21 0.12864964E-02 0.23538490E+02</pdfrwt>
<totfact> 0.85555432E+07</totfact>
</mgrwt>
</event>
<event>
 4    1  0.9374408E+003  0.3052112E+02  0.7546771E-02  0.1592399E+00
         21   -1    0    0  502  501  0.00000000000E+00  0.00000000000E+00  0.49520621360E+01  0.49520621360E+01  0.00000000000E+00 0. -1.
         21   -1    0    0  503  502 -0.00000000000E+00 -0.00000000000E+00 -0.22742428545E+03  0.22742428545E+03  0.00000000000E+00 0. -1.
         21    1    1    2  503  504  0.20726648975E+00 -0.30520413738E+02 -0.62928921412E+02  0.69939886790E+02  0.00000000000E+00 0. -1.
         21    1    1    2  504  501 -0.20726648975E+00  0.30520413738E+02 -0.15954330190E+03  0.16243646080E+03  0.00000000000E+00 0. -1.
<mgrwt>
<rscale>  2 0.30521118E+02</rscale>
<asrwt>0</asrwt>
<pdfrwt beam="1">  1       21 0.76185580E-03 0.30521118E+02</pdfrwt>
<pdfrwt beam="2">  1       21 0.34988347E-01 0.30521118E+02</pdfrwt>
<totfact> 0.35989966E+07</totfact>
</mgrwt>
</event>
<event>
 4    1  0.9374408E+003  0.2357844E+02  0.7546771E-02  0.1682302E+00
         21   -1    0    0  504  501  0.00000000000E+00  0.00000000000E+00  0.72539643701E+01  0.72539643701E+01  0.00000000000E+00 0.  1.
         21   -1    0    0  501  502 -0.00000000000E+00 -0.00000000000E+00 -0.11076098638E+03  0.11076098638E+03  0.00000000000E+00 0.  1.
         21    1    1    2  503  502 -0.22663301390E+02 -0.65052104070E+01 -0.84504555086E+02  0.87732336243E+02  0.00000000000E+00 0.  1.
         21    1    1    2  504  503  0.22663301390E+02  0.65052104070E+01 -0.19002466929E+02  0.30282614512E+02  0.00000000000E+00 0.  1.
<mgrwt>
<rscale>  2 0.23578443E+02</rscale>
<asrwt>0</asrwt>
<pdfrwt beam="1">  1       21 0.11159945E-02 0.23578443E+02</pdfrwt>
<pdfrwt beam="2">  1       21 0.17040152E-01 0.23578443E+02</pdfrwt>
<totfact> 0.69374822E+07</totfact>
</mgrwt>
</event>
<event>
 4    1  0.9374408E+003  0.2337760E+02  0.7546771E-02  0.1685461E+00
         21   -1    0    0  504  501  0.00000000000E+00  0.00000000000E+00  0.12020705669E+01  0.12020705669E+01  0.00000000000E+00 0.  1.
         21   -1    0    0  501  502 -0.00000000000E+00 -0.00000000000E+00 -0.50731601402E+03  0.50731601402E+03  0.00000000000E+00 0.  1.
         21    1    1    2  503  502  0.15198337288E+02 -0.17762961296E+02 -0.33498522012E+03  0.33579995525E+03  0.00000000000E+00 0. -1.
         21    1    1    2  504  503 -0.15198337288E+02  0.17762961296E+02 -0.17112872334E+03  0.17271812933E+03  0.00000000000E+00 0. -1.
<mgrwt>
<rscale>  2 0.23377601E+02</rscale>
<asrwt>0</asrwt>
<pdfrwt beam="1">  1       21 0.18493356E-03 0.23377601E+02</pdfrwt>
<pdfrwt beam="2">  1       21 0.78048777E-01 0.23377601E+02</pdfrwt>
<totfact> 0.56147524E+07</totfact>
</mgrwt>
</event>
<event>
 4    1  0.9374408E+003  0.2033939E+02  0.7546771E-02  0.1738662E+00
         21   -1    0    0  502  501  0.00000000000E+00  0.00000000000E+00  0.10537729339E+03  0.10537729339E+03  0.00000000000E+00 0.  1.
         21   -1    0    0  503  502 -0.00000000000E+00 -0.00000000000E+00 -0.41947169031E+01  0.41947169031E+01  0.00000000000E+00 0.  1.
         21    1    1    2  503  504 -0.20996186837E+01 -0.20230729991E+02  0.36719823315E+02  0.41976615619E+02  0.00000000000E+00 0.  1.
         21    1    1    2  504  501  0.20996186837E+01  0.20230729991E+02  0.64462753168E+02  0.67595394670E+02  0.00000000000E+00 0.  1.
<mgrwt>
<rscale>  2 0.20339391E+02</rscale>
<asrwt>0</asrwt>
<pdfrwt beam="1">  1       21 0.16211889E-01 0.20339391E+02</pdfrwt>
<pdfrwt beam="2">  1       21 0.64534114E-03 0.20339391E+02</pdfrwt>
<totfact> 0.16408014E+08</totfact>
</mgrwt>
</event>
<event>
 4    1  0.9374408E+003  0.2070292E+02  0.7546771E-02  0.1731700E+00
         21   -1    0    0  502  501  0.00000000000E+00  0.00000000000E+00  0.19801927643E+03  0.19801927643E+03  0.00000000000E+00 0.  1.
         21   -1    0    0  503  502 -0.00000000000E+00 -0.00000000000E+00 -0.28175190463E+01  0.28175190463E+01  0.00000000000E+00 0.  1.
         21    1    1    2  503  504  0.18307594033E+01  0.20621816752E+02  0.49256535320E+02  0.53430490152E+02  0.00000000000E+00 0. -1.
         21    1    1    2  504  501 -0.18307594033E+01 -0.20621816752E+02  0.14594522207E+03  0.14740630533E+03  0.00000000000E+00 0. -1.
<mgrwt>
<rscale>  2 0.20702923E+02</rscale>
<asrwt>0</asrwt>
<pdfrwt beam="1">  1       21 0.30464493E-01 0.20702923E+02</pdfrwt>
<pdfrwt beam="2">  1       21 0.43346462E-03 0.20702923E+02</pdfrwt>
<totfact> 0.97882977E+07</totfact>
</mgrwt>
</event>
<event>
 4    1  0.9374408E+003  0.3242827E+02  0.7546771E-02  0.1572701E+00
         21   -1    0    0  502  501  0.00000000000E+00  0.00000000000E+00  0.85781724679E+02  0.85781724679E+02  0.00000000000E+00 0.  1.
         21   -1    0    0  504  502 -0.00000000000E+00 -0.00000000000E+00 -0.16709280307E+02  0.16709280307E+02  0.00000000000E+00 0.  1.
         21    1    1    2  503  501  0.13644473899E+01 -0.32399549607E+02  0.80893832606E+01  0.33422008511E+02  0.00000000000E+00 0.  1.
         21    1    1    2  504  503 -0.13644473899E+01  0.32399549607E+02  0.60983061112E+02  0.69068996475E+02  0.00000000000E+00 0.  1.
<mgrwt>
<rscale>  2 0.32428267E+02</rscale>
<asrwt>0</asrwt>
<pdfrwt beam="1">  1       21 0.13197188E-01 0.32428267E+02</pdfrwt>
<pdfrwt beam="2">  1       21 0.25706586E-02 0.32428267E+02</pdfrwt>
<totfact> 0.32073089E+07</totfact>
</mgrwt>
</event>
<event>
 4    1  0.9374408E+003  0.2730203E+02  0.7546771E-02  0.1629981E+00
         21   -1    0    0  502  501  0.00000000000E+00  0.00000000000E+00  0.11597207702E+02  0.11597207702E+02  0.00000000000E+00 0. -1.
         21   -1    0    0  503  502 -0.00000000000E+00 -0.00000000000E+00 -0.30864831017E+03  0.30864831017E+03  0.00000000000E+00 0. -1.
         21    1    1    2  503  504 -0.26572256726E+02  0.62702500876E+01 -0.60472466107E+01  0.27963727492E+02  0.00000000000E+00 0. -1.
         21    1    1    2  504  501  0.26572256726E+02 -0.62702500876E+01 -0.29100385586E+03  0.29228179038E+03  0.00000000000E+00 0. -1.
<mgrwt>
<rscale>  2 0.27302030E+02</rscale>
<asrwt>0</asrwt>
<pdfrwt beam="1">  1       21 0.17841860E-02 0.27302030E+02</pdfrwt>
<pdfrwt beam="2">  1       21 0.47484351E-01 0.27302030E+02</pdfrwt>
<totfact> 0.54072690E+06</totfact>
</mgrwt>
</event>
<event>
 4    1  0.9374408E+003  0.3934317E+02  0.7546771E-02  0.1513101E+00
         21   -1    0    0  504  501  0.00000000000E+00  0.00000000000E+00  0.39370582693E+01  0.39370582693E+01  0.00000000000E+00 0.  1.
         21   -1    0    0  501  502 -0.00000000000E+00 -0.00000000000E+00 -0.49742681590E+03  0.49742681590E+03  0.00000000000E+00 0.  1.
         21    1    1    2  503  502  0.31194463053E+02  0.23974782559E+02 -0.13197278175E+03  0.13771238088E+03  0.00000000000E+00 0.  1.
         21    1    1    2  504  503 -0.31194463053E+02 -0.23974782559E+02 -0.36151697588E+03  0.36365149330E+03  0.00000000000E+00 0.  1.
<mgrwt>
<rscale>  2 0.39343166E+02</rscale>
<asrwt>0</asrwt>
<pdfrwt beam="1">  1       21 0.60570148E-03 0.39343166E+02</pdfrwt>
<pdfrwt beam="2">  1       21 0.76527176E-01 0.39343166E+02</pdfrwt>
<totfact> 0.11136842E+07</totfact>
</mgrwt>
</event>
<event>
 4    1  0.9374408E+003  0.2123535E+02  0.7546771E-02  0.1721822E+00
         21   -1    0    0  503  501  0.00000000000E+00  0.00000000000E+00  0.56447599401E+00  0.56447599401E+00  0.00000000000E+00 0.  1.
         21   -1    0    0  501  502 -0.00000000000E+00 -0.00000000000E+00 -0.95821337056E+03  0.95821337056E+03  0.00000000000E+00 0.  1.
         21    1    1    2  503  504 -0.15532107994E+02  0.14480801960E+02 -0.28333155917E+03  0.28412622622E+03  0.00000000000E+00 0. -1.
         21    1    1    2  504  502  0.15532107994E+02 -0.14480801960E+02 -0.67431733540E+03  0.67465162034E+03  0.00000000000E+00 0. -1.
<mgrwt>
<rscale>  2 0.21235348E+02</rscale>
<asrwt>0</asrwt>
<pdfrwt beam="1">  1       21 0.86841388E-04 0.21235348E+02</pdfrwt>
<pdfrwt beam="2">  1       21 0.14741926E+00 0.21235348E+02</pdfrwt>
<totfact> 0.39596312E+07</totfact>
</mgrwt>
</event>
<event>
 4    1  0.9374408E+003  0.2337939E+02  0.7546771E-02  0.1685433E+00
         21   -1    0    0  504  501  0.00000000000E+00  0.00000000000E+00  0.20040844068E+01  0.20040844068E+01  0.00000000000E+00 0.  1.
         21   -1    0    0  501  502 -0.00000000000E+00 -0.00000000000E+00 -0.35595580349E+03  0.35595580349E+03  0.00000000000E+00 0.  1.
         21    1    1    2  503  502 -0.19085524364E+02 -0.13503290826E+02 -0.90437935878E+02  0.93411007645E+02  0.00000000000E+00 0. -1.
         21    1    1    2  504  503  0.19085524364E+02  0.13503290826E+02 -0.26351378320E+03  0.26454888025E+03  0.00000000000E+00 0. -1.
<mgrwt>
<rscale>  2 0.23379395E+02</rscale>
<asrwt>0</asrwt>
<pdfrwt beam="1">  1       21 0.30832085E-03 0.23379395E+02</pdfrwt>
<pdfrwt beam="2">  1       21 0.54762401E-01 0.23379395E+02</pdfrwt>
<totfact> 0.54911283E+07</totfact>
</mgrwt>
</event>
<event>
 4    1  0.9374408E+003  0.3212759E+02  0.7546771E-02  0.1575695E+00
         21   -1    0    0  503  501  0.00000000000E+00  0.00000000000E+00  0.13000006405E+04  0.13000006405E+04  0.00000000000E+00 0. -1.
         21   -1    0    0  501  502 -0.00000000000E+00 -0.00000000000E+00 -0.26689894605E+01  0.26689894605E+01  0.00000000000E+00 0. -1.
         21    1    1    2  503  504 -0.30817872664E+02  0.90797070115E+01  0.10274219183E+03  0.10764822496E+03  0.00000000000E+00 0.  1.
         21    1    1    2  504  502  0.30817872664E+02 -0.90797070115E+01  0.11945894592E+04  0.11950214050E+04  0.00000000000E+00 0.  1.
<mgrwt>
<rscale>  2 0.32127595E+02</rscale>
<asrwt>0</asrwt>
<pdfrwt beam="1">  1       21 0.19999959E+00 0.32127595E+02</pdfrwt>
<pdfrwt beam="2">  1       21 0.41061480E-03 0.32127595E+02</pdfrwt>
<totfact> 0.20544519E+06</totfact>
</mgrwt>
</event>
<event>
 4    1  0.9374408E+003  0.4056330E+02  0.7546771E-02  0.1504107E+00
         21   -1    0    0  502  501  0.00000000000E+00  0.00000000000E+00  0.74476207884E+01  0.74476207884E+01  0.00000000000E+00 0.  1.
         21   -1    0    0  504  502 -0.00000000000E+00 -0.00000000000E+00 -0.24601483774E+03  0.24601483774E+03  0.00000000000E+00 0.  1.
         21    1    1    2  503  501 -0.30405299521E+02  0.26849557253E+02 -0.78813525495E+02  0.88639453770E+02  0.00000000000E+00 0.  1.
         21    1    1    2  504  503  0.30405299521E+02 -0.26849557253E+02 -0.15975369145E+03  0.16482300476E+03  0.00000000000E+00 0.  1.
<mgrwt>
<rscale>  2 0.40563296E+02</rscale>
<asrwt>0</asrwt>
<pdfrwt beam="1">  1       21 0.11457876E-02 0.40563296E+02</pdfrwt>
<pdfrwt beam="2">  1       21 0.37848444E-01 0.40563296E+02</pdfrwt>
<totfact> 0.17499267E+07</totfact>
</mgrwt>
</event>
<event>
 4    1  0.9374408E+003  0.2130215E+02  0.7546771E-02  0.1720608E+00
         21   -1    0    0  503  501  0.00000000000E+00  0.00000000000E+00  0.48408956158E+02  0.48408956158E+02  0.00000000000E+00 0.  1.
         21   -1    0    0  501  502 -0.00000000000E+00 -0.00000000000E+00 -0.12768495272E+02  0.12768495272E+02  0.00000000000E+00 0.  1.
         21    1    1    2  503  504  0.57525525303E+01 -0.20510720679E+02  0.33592146497E+02  0.39777051546E+02  0.00000000000E+00 0.  1.
         21    1    1    2  504  502 -0.57525525303E+01  0.20510720679E+02  0.20483143887E+01  0.21400399885E+02  0.00000000000E+00 0.  1.
<mgrwt>
<rscale>  2 0.21302148E+02</rscale>
<asrwt>0</asrwt>
<pdfrwt beam="1">  1       21 0.74475316E-02 0.21302148E+02</pdfrwt>
<pdfrwt beam="2">  1       21 0.19643839E-02 0.21302148E+02</pdfrwt>
<totfact> 0.11358443E+08</totfact>
</mgrwt>
</event>
<event>
 4    1  0.9374408E+003  0.2979602E+02  0.7546771E-02  0.1600354E+00
         21   -1    0    0  503  501  0.00000000000E+00  0.00000000000E+00  0.42964668816E+03  0.42964668816E+03  0.00000000000E+00 0. -1.
         21   -1    0    0  501  502 -0.00000000000E+00 -0.00000000000E+00 -0.27666743111E+01  0.27666743111E+01  0.00000000000E+00 0. -1.
         21    1    1    2  503  504 -0.26316998033E+02  0.13972062271E+02  0.32221721466E+03  0.32359192872E+03  0.00000000000E+00 0.  1.
         21    1    1    2  504  502  0.26316998033E+02 -0.13972062271E+02  0.10466279919E+03  0.10882143375E+03  0.00000000000E+00 0.  1.
<mgrwt>
<rscale>  2 0.29796022E+02</rscale>
<asrwt>0</asrwt>
<pdfrwt beam="1">  1       21 0.66099437E-01 0.29796022E+02</pdfrwt>
<pdfrwt beam="2">  1       21 0.42564254E-03 0.29796022E+02</pdfrwt>
<totfact> 0.24595321E+07</totfact>
</mgrwt>
</event>
<event>
 4    1  0.9374408E+003  0.2855509E+02  0.7546771E-02  0.1614632E+00
         21   -1    0    0  502  501  0.00000000000E+00  0.00000000000E+00  0.67109107624E+02  0.67109107624E+02  0.00000000000E+00 0. -1.
         21   -1    0    0  503  502 -0.00000000000E+00 -0.00000000000E+00 -0.21040692967E+02  0.21040692967E+02  0.00000000000E+00 0. -1.
         21    1    1    2  503  504  0.10210354963E+02 -0.26667241021E+02  0.51684085525E+02  0.59047758541E+02  0.00000000000E+00 0.  1.
         21    1    1    2  504  501 -0.10210354963E+02  0.26667241021E+02 -0.56156708682E+01  0.29102042049E+02  0.00000000000E+00 0.  1.
<mgrwt>
<rscale>  2 0.28555089E+02</rscale>
<asrwt>0</asrwt>
<pdfrwt beam="1">  1       21 0.10324478E-01 0.28555089E+02</pdfrwt>
<pdfrwt beam="2">  1       21 0.32370297E-02 0.28555089E+02</pdfrwt>
<totfact> 0.32953716E+07</totfact>
</mgrwt>
</event>
<event>
 4    1  0.9374408E+003  0.2356378E+02  0.7546771E-02  0.1682531E+00
         21   -1    0    0  503  501  0.00000000000E+00  0.00000000000E+00  0.79117943099E+02  0.79117943099E+02  0.00000000000E+00 0.  1.
         21   -1    0    0  501  502 -0.00000000000E+00 -0.00000000000E+00 -0.31003643234E+02  0.31003643234E+02  0.00000000000E+00 0.  1.
         21    1    1    2  503  504  0.90307773882E+00  0.23546467852E+02 -0.24372525326E+02  0.33900909847E+02  0.00000000000E+00 0. -1.
         21    1    1    2  504  502 -0.90307773882E+00 -0.23546467852E+02  0.72486825190E+02  0.76220676485E+02  0.00000000000E+00 0. -1.
<mgrwt>
<rscale>  2 0.23563779E+02</rscale>
<asrwt>0</asrwt>
<pdfrwt beam="1">  1       21 0.12171991E-01 0.23563779E+02</pdfrwt>
<pdfrwt beam="2">  1       21 0.47697913E-02 0.23563779E+02</pdfrwt>
<totfact> 0.13020230E+07</totfact>
</mgrwt>
</event>
<event>
 4    1  0.9374408E+003  0.2396718E+02  0.7546771E-02  0.1676296E+00
         21   -1    0    0  504  501  0.00000000000E+00  0.00000000000E+00  0.49938451471E+03  0.49938451471E+03  0.00000000000E+00 0.  1.
         21   -1    0    0  501  502 -0.00000000000E+00 -0.00000000000E+00 -0.14872918434E+01  0.14872918434E+01  0.00000000000E+00 0.  1.
         21    1    1    2  503  502  0.21545467959E+02  0.10498495079E+02  0.12973403175E+03  0.13192931662E+03  0.00000000000E+00 0. -1.
         21    1    1    2  504  503 -0.21545467959E+02 -0.10498495079E+02  0.36816319111E+03  0.36894248993E+03  0.00000000000E+00 0. -1.
<mgrwt>
<rscale>  2 0.23967177E+02</rscale>
<asrwt>0</asrwt>
<pdfrwt beam="1">  1       21 0.76828253E-01 0.23967177E+02</pdfrwt>
<pdfrwt beam="2">  1       21 0.22881453E-03 0.23967177E+02</pdfrwt>
<totfact> 0.42885836E+07</totfact>
</mgrwt>
</event>
<event>
 4    1  0.9374408E+003  0.2633214E+02  0.7546771E-02  0.1642574E+00
         21   -1    0    0  504  501  0.00000000000E+00  0.00000000000E+00  0.33843565058E+02  0.33843565058E+02  0.00000000000E+00 0.  1.
         21   -1    0    0  501  502 -0.00000000000E+00 -0.00000000000E+00 -0.33332577567E+02  0.33332577567E+02  0.00000000000E+00 0.  1.
         21    1    1    2  503  502 -0.14417685063E+02 -0.22034335837E+02 -0.20594849504E+02  0.33429469401E+02  0.00000000000E+00 0. -1.
         21    1    1    2  504  503  0.14417685063E+02  0.22034335837E+02  0.21105836995E+02  0.33746673223E+02  0.00000000000E+00 0. -1.
<mgrwt>
<rscale>  2 0.26332140E+02</rscale>
<asrwt>0</asrwt>
<pdfrwt beam="1">  1       21 0.52067023E-02 0.26332140E+02</pdfrwt>
<pdfrwt beam="2">  1       21 0.51280889E-02 0.26332140E+02</pdfrwt>
<totfact> 0.47751564E+07</totfact>
</mgrwt>
</event>
<event>
 4    1  0.9374408E+003  0.2541866E+02  0.7546771E-02  0.1655060E+00
         21   -1    0    0  502  501  0.00000000000E+00  0.00000000000E+00  0.15633408036E+02  0.15633408036E+02  0.00000000000E+00 0.  1.
         21   -1    0    0  503  502 -0.00000000000E+00 -0.00000000000E+00 -0.56310531091E+02  0.56310531091E+02  0.00000000000E+00 0.  1.
         21    1    1    2  503  504  0.21341769748E+02  0.13807138545E+02 -0.38893181240E+02  0.46462756674E+02  0.00000000000E+00 0.  1.
         21    1    1    2  504  501 -0.21341769748E+02 -0.13807138545E+02 -0.17839418143E+01  0.25481182453E+02  0.00000000000E+00 0.  1.
<mgrwt>
<rscale>  2 0.25418659E+02</rscale>
<asrwt>0</asrwt>
<pdfrwt beam="1">  1       21 0.24051398E-02 0.25418659E+02</pdfrwt>
<pdfrwt beam="2">  1       21 0.86631583E-02 0.25418659E+02</pdfrwt>
<totfact> 0.68240550E+07</totfact>
</mgrwt>
</event>
<event>
 4    1  0.9374408E+003  0.2240822E+02  0.7546771E-02  0.1701286E+00
         21   -1    0    0  502  501  0.00000000000E+00  0.00000000000E+00  0.15829761716E+04  0.15829761716E+04  0.00000000000E+00 0. -1.
         21   -1    0    0  503  502 -0.00000000000E+00 -0.00000000000E+00 -0.42417126218E+00  0.42417126218E+00  0.00000000000E+00 0. -1.
         21    1    1    2  503  504  0.22292563934E+02 -0.22737121359E+01  0.39370632600E+03  0.39434350420E+03  0.00000000000E+00 0.  1.
         21    1    1    2  504  501 -0.22292563934E+02  0.22737121359E+01  0.11888456744E+04  0.11890568387E+04  0.00000000000E+00 0.  1.
<mgrwt>
<rscale>  2 0.22408217E+02</rscale>
<asrwt>0</asrwt>
<pdfrwt beam="1">  1       21 0.24353007E+00 0.22408217E+02</pdfrwt>
<pdfrwt beam="2">  1       21 0.65258385E-04 0.22408217E+02</pdfrwt>
<totfact> 0.16754175E+07</totfact>
</mgrwt>
</event>
<event>
 4    1  0.9374408E+003  0.3041873E+02  0.7546771E-02  0.1593506E+00
         21   -1    0    0  503  501  0.00000000000E+00  0.00000000000E+00  0.22168262376E+02  0.22168262376E+02  0.00000000000E+00 0. -1.
         21   -1    0    0  501  502 -0.00000000000E+00 -0.00000000000E+00 -0.54882581352E+02  0.54882581352E+02  0.00000000000E+00 0. -1.
         21    1    1    2  503  504  0.30295478303E+02  0.27355077024E+01 -0.35209863659E+02  0.46529920555E+02  0.00000000000E+00 0.  1.
         21    1    1    2  504  502 -0.30295478303E+02 -0.27355077024E+01  0.24955446833E+01  0.30520923172E+02  0.00000000000E+00 0.  1.
<mgrwt>
<rscale>  2 0.30418728E+02</rscale>
<asrwt>0</asrwt>
<pdfrwt beam="1">  1       21 0.34105019E-02 0.30418728E+02</pdfrwt>
<pdfrwt beam="2">  1       21 0.84434740E-02 0.30418728E+02</pdfrwt>
<totfact> 0.42982157E+07</totfact>
</mgrwt>
</event>
<event>
 4    1  0.9374408E+003  0.2428715E+02  0.7546771E-02  0.1671457E+00
         21   -1    0    0  503  501  0.00000000000E+00  0.00000000000E+00  0.19612965403E+03  0.19612965403E+03  0.00000000000E+00 0.  1.
         21   -1    0    0  501  502 -0.00000000000E+00 -0.00000000000E+00 -0.31352301323E+01  0.31352301323E+01  0.00000000000E+00 0.  1.
         21    1    1    2  503  504 -0.14944404692E+02 -0.19144986599E+02  0.76389512452E+02  0.80157490955E+02  0.00000000000E+00 0. -1.
         21    1    1    2  504  502  0.14944404692E+02  0.19144986599E+02  0.11660491144E+03  0.11910739321E+03  0.00000000000E+00 0. -1.
<mgrwt>
<rscale>  2 0.24287152E+02</rscale>
<asrwt>0</asrwt>
<pdfrwt beam="1">  1       21 0.30173783E-01 0.24287152E+02</pdfrwt>
<pdfrwt beam="2">  1       21 0.48234325E-03 0.24287152E+02</pdfrwt>
<totfact> 0.88859680E+07</totfact>
</mgrwt>
</event>
<event>
 4    1  0.9374408E+003  0.2447174E+02  0.7546771E-02  0.1668707E+00
         21   -1    0    0  502  501  0.00000000000E+00  0.00000000000E+00  0.19395253517E+02  0.19395253517E+02  0.00000000000E+00 0. -1.
         21   -1    0    0  504  502 -0.00000000000E+00 -0.00000000000E+00 -0.40024641820E+02  0.40024641820E+02  0.00000000000E+00 0. -1.
         21    1    1    2  503  501 -0.83080547402E+01 -0.23018307472E+02 -0.24518147447E+02  0.34641099964E+02  0.00000000000E+00 0. -1.
         21    1    1    2  504  503  0.83080547402E+01  0.23018307472E+02  0.38887591435E+01  0.24778795373E+02  0.00000000000E+00 0. -1.
<mgrwt>
<rscale>  2 0.24471744E+02</rscale>
<asrwt>0</asrwt>
<pdfrwt beam="1">  1       21 0.29838851E-02 0.24471744E+02</pdfrwt>
<pdfrwt beam="2">  1       21 0.61576373E-02 0.24471744E+02</pdfrwt>
<totfact> 0.84276228E+07</totfact>
</mgrwt>
</event>
<event>
 4    1  0.9374408E+003  0.4931989E+02  0.7546771E-02  0.1449045E+00
         21   -1    0    0  504  501  0.00000000000E+00  0.00000000000E+00  0.52580859632E+02  0.52580859632E+02  0.00000000000E+00 0. -1.
         21   -1    0    0  501  502 -0.00000000000E+00 -0.00000000000E+00 -0.12745399060E+03  0.12745399060E+03  0.00000000000E+00 0. -1.
         21    1    1    2  503  502  0.95927242687E+01 -0.48378003850E+02  0.34410445574E+02  0.60137595396E+02  0.00000000000E+00 0. -1.
         21    1    1    2  504  503 -0.95927242687E+01  0.48378003850E+02 -0.10928357654E+03  0.11989725483E+03  0.00000000000E+00 0. -1.
<mgrwt>
<rscale>  2 0.49319891E+02</rscale>
<asrwt>0</asrwt>
<pdfrwt beam="1">  1       21 0.80893630E-02 0.49319891E+02</pdfrwt>
<pdfrwt beam="2">  1       21 0.19608306E-01 0.49319891E+02</pdfrwt>
<totfact> 0.26522446E+06</totfact>
</mgrwt>
</event>
<event>
 4    1  0.9374408E+003  0.2789934E+02  0.7546771E-02  0.1622541E+00
         21   -1    0    0  503  501  0.00000000000E+00  0.00000000000E+00  0.12541428842E+03  0.12541428842E+03  0.00000000000E+00 0.  1.
         21   -1    0    0  501  502 -0.00000000000E+00 -0.00000000000E+00 -0.31037711422E+02  0.31037711422E+02  0.00000000000E+00 0.  1.
         21    1    1    2  503  504 -0.27899136876E+02 -0.10518644892E+00  0.11715734056E+03  0.12043344781E+03  0.00000000000E+00 0. -1.
         21    1    1    2  504  502  0.27899136876E+02  0.10518644892E+00 -0.22780763562E+02  0.36018552040E+02  0.00000000000E+00 0. -1.
<mgrwt>
<rscale>  2 0.27899335E+02</rscale>
<asrwt>0</asrwt>
<pdfrwt beam="1">  1       21 0.19294506E-01 0.27899335E+02</pdfrwt>
<pdfrwt beam="2">  1       21 0.47750326E-02 0.27899335E+02</pdfrwt>
<totfact> 0.60770744E+06</totfact>
</mgrwt>
</event>
<event>
 4    1  0.9374408E+003  0.2112101E+02  0.7546771E-02  0.1723913E+00
         21   -1    0    0  503  501  0.00000000000E+00  0.00000000000E+00  0.59846088030E+01  0.59846088030E+01  0.00000000000E+00 0.  1.
         21   -1    0    0  501  502 -0.00000000000E+00 -0.00000000000E+00 -0.12565266620E+03  0.12565266620E+03  0.00000000000E+00 0.  1.
         21    1    1    2  503  504 -0.20579392331E+02  0.47524195431E+01 -0.10181228188E+03  0.10397998664E+03  0.00000000000E+00 0. -1.
         21    1    1    2  504  502  0.20579392331E+02 -0.47524195431E+01 -0.17855775517E+02  0.27657288362E+02  0.00000000000E+00 0. -1.
<mgrwt>
<rscale>  2 0.21121006E+02</rscale>
<asrwt>0</asrwt>
<pdfrwt beam="1">  1       21 0.92070907E-03 0.21121006E+02</pdfrwt>
<pdfrwt beam="2">  1       21 0.19331179E-01 0.21121006E+02</pdfrwt>
<totfact> 0.72303889E+07</totfact>
</mgrwt>
</event>
<event>
 4    1  0.9374408E+003  0.3168334E+02  0.7546771E-02  0.1580194E+00
         21   -1    0    0  504  501  0.00000000000E+00  0.00000000000E+00  0.80476972868E+00  0.80476972868E+00  0.00000000000E+00 0. -1.
         21   -1    0    0  501  502 -0.00000000000E+00 -0.00000000000E+00 -0.14292579880E+04  0.14292579880E+04  0.00000000000E+00 0. -1.
         21    1    1    2  503  502  0.26959793169E+02  0.16643416658E+02 -0.45913899261E+03  0.46023086413E+03  0.00000000000E+00 0. -1.
         21    1    1    2  504  503 -0.26959793169E+02 -0.16643416658E+02 -0.96931422567E+03  0.96983189360E+03  0.00000000000E+00 0. -1.
<mgrwt>
<rscale>  2 0.31683336E+02</rscale>
<asrwt>0</asrwt>
<pdfrwt beam="1">  1       21 0.12381091E-03 0.31683336E+02</pdfrwt>
<pdfrwt beam="2">  1       21 0.21988551E+00 0.31683336E+02</pdfrwt>
<totfact> 0.91865613E+06</totfact>
</mgrwt>
</event>
<event>
 4    1  0.9374408E+003  0.3904254E+02  0.7546771E-02  0.1515378E+00
         21   -1    0    0  503  501  0.00000000000E+00  0.00000000000E+00  0.81608165700E+02  0.81608165700E+02  0.00000000000E+00 0. -1.
         21   -1    0    0  501  502 -0.00000000000E+00 -0.00000000000E+00 -0.26665824698E+02  0.26665824698E+02  0.00000000000E+00 0. -1.
         21    1    1    2  503  504  0.14242605629E+02 -0.36352003162E+02 -0.21578093617E+01  0.39102123858E+02  0.00000000000E+00 0. -1.
         21    1    1    2  504  502 -0.14242605629E+02  0.36352003162E+02  0.57100150364E+02  0.69171866540E+02  0.00000000000E+00 0. -1.
<mgrwt>
<rscale>  2 0.39042540E+02</rscale>
<asrwt>0</asrwt>
<pdfrwt beam="1">  1       21 0.12555102E-01 0.39042540E+02</pdfrwt>
<pdfrwt beam="2">  1       21 0.41024346E-02 0.39042540E+02</pdfrwt>
<totfact> 0.17187738E+07</totfact>
</mgrwt>
</event>
<event>
 4    1  0.9374408E+003  0.3083250E+02  0.7546771E-02  0.1589065E+00
         21   -1    0    0  503  501  0.00000000000E+00  0.00000000000E+00  0.46062724338E+01  0.46062724338E+01  0.00000000000E+00 0.  1.
         21   -1    0    0  501  502 -0.00000000000E+00 -0.00000000000E+00 -0.23113512527E+03  0.23113512527E+03  0.00000000000E+00 0.  1.
         21    1    1    2  503  504 -0.15637133493E+02  0.26572974234E+02 -0.15183931573E+03  0.15493811896E+03  0.00000000000E+00 0. -1.
         21    1    1    2  504  502  0.15637133493E+02 -0.26572974234E+02 -0.74689537097E+02  0.80803278741E+02  0.00000000000E+00 0. -1.
<mgrwt>
<rscale>  2 0.30832498E+02</rscale>
<asrwt>0</asrwt>
<pdfrwt beam="1">  1       21 0.70865750E-03 0.30832498E+02</pdfrwt>
<pdfrwt beam="2">  1       21 0.35559240E-01 0.30832498E+02</pdfrwt>
<totfact> 0.39004550E+07</totfact>
</mgrwt>
</event>
<event>
 4    1  0.9374408E+003  0.2611406E+02  0.7546771E-02  0.1645497E+00
         21   -1    0    0  502  501  0.00000000000E+00  0.00000000000E+00  0.98991266181E+01  0.98991266181E+01  0.00000000000E+00 0. -1.
         21   -1    0    0  503  502 -0.00000000000E+00 -0.00000000000E+00 -0.15510871788E+03  0.15510871788E+03  0.00000000000E+00 0. -1.
         21    1    1    2  503  504  0.79316198222E+01 -0.24880388091E+02 -0.11092925277E+02  0.28372474263E+02  0.00000000000E+00 0. -1.
         21    1    1    2  504  501 -0.79316198222E+01  0.24880388091E+02 -0.13411666599E+03  0.13663537024E+03  0.00000000000E+00 0. -1.
<mgrwt>
<rscale>  2 0.26114063E+02</rscale>
<asrwt>0</asrwt>
<pdfrwt beam="1">  1       21 0.15229426E-02 0.26114063E+02</pdfrwt>
<pdfrwt beam="2">  1       21 0.23862878E-01 0.26114063E+02</pdfrwt>
<totfact> 0.24563096E+07</totfact>
</mgrwt>
</event>
<event>
 4    1  0.9374408E+003  0.3923536E+02  0.7546771E-02  0.1513915E+00
         21   -1    0    0  502  501  0.00000000000E+00  0.00000000000E+00  0.38800215950E+02  0.38800215950E+02  0.00000000000E+00 0. -1.
         21   -1    0    0  503  502 -0.00000000000E+00 -0.00000000000E+00 -0.44180902692E+02  0.44180902692E+02  0.00000000000E+00 0. -1.
         21    1    1    2  503  504 -0.32515857301E+02 -0.21957523923E+02  0.10559292423E+02  0.40631422438E+02  0.00000000000E+00 0. -1.
         21    1    1    2  504  501  0.32515857301E+02  0.21957523923E+02 -0.15939979164E+02  0.42349696204E+02  0.00000000000E+00 0. -1.
<mgrwt>
<rscale>  2 0.39235365E+02</rscale>
<asrwt>0</asrwt>
<pdfrwt beam="1">  1       21 0.59692640E-02 0.39235365E+02</pdfrwt>
<pdfrwt beam="2">  1       21 0.67970620E-02 0.39235365E+02</pdfrwt>
<totfact> 0.26247326E+07</totfact>
</mgrwt>
</event>
<event>
 4    1  0.9374408E+003  0.2710009E+02  0.7546771E-02  0.1632549E+00
         21   -1    0    0  503  501  0.00000000000E+00  0.00000000000E+00  0.19433782946E+02  0.19433782946E+02  0.00000000000E+00 0. -1.
         21   -1    0    0  501  502 -0.00000000000E+00 -0.00000000000E+00 -0.39889871891E+02  0.39889871891E+02  0.00000000000E+00 0. -1.
         21    1    1    2  503  504 -0.20798653771E+02 -0.17373281472E+02 -0.34235198798E+01  0.27315479057E+02  0.00000000000E+00 0. -1.
         21    1    1    2  504  502  0.20798653771E+02  0.17373281472E+02 -0.17032569065E+02  0.32008175779E+02  0.00000000000E+00 0. -1.
<mgrwt>
<rscale>  2 0.27100091E+02</rscale>
<asrwt>0</asrwt>
<pdfrwt beam="1">  1       21 0.29898128E-02 0.27100091E+02</pdfrwt>
<pdfrwt beam="2">  1       21 0.61369033E-02 0.27100091E+02</pdfrwt>
<totfact> 0.86730513E+07</totfact>
</mgrwt>
</event>
<event>
 4    1  0.9374408E+003  0.3675181E+02  0.7546771E-02  0.1533572E+00
         21   -1    0    0  503  501  0.00000000000E+00  0.00000000000E+00  0.32541617407E+02  0.32541617407E+02  0.00000000000E+00 0. -1.
         21   -1    0    0  501  502 -0.00000000000E+00 -0.00000000000E+00 -0.48491653267E+02  0.48491653267E+02  0.00000000000E+00 0. -1.
         21    1    1    2  503  504  0.36737938876E+02  0.10096523587E+01  0.74023231646E+01  0.37489864483E+02  0.00000000000E+00 0. -1.
         21    1    1    2  504  502 -0.36737938876E+02 -0.10096523587E+01 -0.23352359024E+02  0.43543406191E+02  0.00000000000E+00 0. -1.
<mgrwt>
<rscale>  2 0.36751810E+02</rscale>
<asrwt>0</asrwt>
<pdfrwt beam="1">  1       21 0.50064027E-02 0.36751810E+02</pdfrwt>
<pdfrwt beam="2">  1       21 0.74602543E-02 0.36751810E+02</pdfrwt>
<totfact> 0.29631665E+07</totfact>
</mgrwt>
</event>
<event>
 4    1  0.9374408E+003  0.2263367E+02  0.7546771E-02  0.1697518E+00
         21   -1    0    0  503  501  0.00000000000E+00  0.00000000000E+00  0.65835059654E+03  0.65835059654E+03  0.00000000000E+00 0. -1.
         21   -1    0    0  501  502 -0.00000000000E+00 -0.00000000000E+00 -0.21535658788E+01  0.21535658788E+01  0.00000000000E+00 0. -1.
         21    1    1    2  503  504  0.22594169677E+02 -0.13366827975E+01  0.59202711108E+03  0.59245960493E+03  0.00000000000E+00 0. -1.
         21    1    1    2  504  502 -0.22594169677E+02  0.13366827975E+01  0.64169919578E+02  0.68044557482E+02  0.00000000000E+00 0. -1.
<mgrwt>
<rscale>  2 0.22633675E+02</rscale>
<asrwt>0</asrwt>
<pdfrwt beam="1">  1       21 0.10128455E+00 0.22633675E+02</pdfrwt>
<pdfrwt beam="2">  1       21 0.33131835E-03 0.22633675E+02</pdfrwt>
<totfact> 0.13712033E+07</totfact>
</mgrwt>
</event>
<event>
 4    1  0.9374408E+003  0.2007034E+02  0.7546771E-02  0.1743933E+00
         21   -1    0    0  504  501  0.00000000000E+00  0.00000000000E+00  0.49025135797E+00  0.49025135797E+00  0.00000000000E+00 0.  1.
         21   -1    0    0  501  502 -0.00000000000E+00 -0.00000000000E+00 -0.12616699975E+04  0.12616699975E+04  0.00000000000E+00 0.  1.
         21    1    1    2  503  502 -0.19428005076E+01 -0.19976087017E+02 -0.25790282456E+03  0.25868259594E+03  0.00000000000E+00 0.  1.
         21    1    1    2  504  503  0.19428005076E+01  0.19976087017E+02 -0.10032769215E+04  0.10034776529E+04  0.00000000000E+00 0.  1.
<mgrwt>
<rscale>  2 0.20070339E+02</rscale>
<asrwt>0</asrwt>
<pdfrwt beam="1">  1       21 0.75424141E-04 0.20070339E+02</pdfrwt>
<pdfrwt beam="2">  1       21 0.19410088E+00 0.20070339E+02</pdfrwt>
<totfact> 0.24511966E+07</totfact>
</mgrwt>
</event>
<event>
 4    1  0.9374408E+003  0.2397443E+02  0.7546771E-02  0.1676185E+00
         21   -1    0    0  502  501  0.00000000000E+00  0.00000000000E+00  0.52091780925E+01  0.52091780925E+01  0.00000000000E+00 0. -1.
         21   -1    0    0  504  502 -0.00000000000E+00 -0.00000000000E+00 -0.13685592285E+03  0.13685592285E+03  0.00000000000E+00 0. -1.
         21    1    1    2  503  501  0.15617265238E+02  0.18189948937E+02 -0.34556044661E+02  0.42058214874E+02  0.00000000000E+00 0.  1.
         21    1    1    2  504  503 -0.15617265238E+02 -0.18189948937E+02 -0.97090700098E+02  0.10000688607E+03  0.00000000000E+00 0.  1.
<mgrwt>
<rscale>  2 0.23974428E+02</rscale>
<asrwt>0</asrwt>
<pdfrwt beam="1">  1       21 0.80141200E-03 0.23974428E+02</pdfrwt>
<pdfrwt beam="2">  1       21 0.21054758E-01 0.23974428E+02</pdfrwt>
<totfact> 0.79297982E+07</totfact>
</mgrwt>
</event>
<event>
 4    1  0.9374408E+003  0.2283312E+02  0.7546771E-02  0.1694230E+00
         21   -1    0    0  502  501  0.00000000000E+00  0.00000000000E+00  0.62574301288E+02  0.62574301288E+02  0.00000000000E+00 0. -1.
         21   -1    0    0  504  502 -0.00000000000E+00 -0.00000000000E+00 -0.11005563584E+02  0.11005563584E+02  0.00000000000E+00 0. -1.
         21    1    1    2  503  501 -0.19242142375E+02 -0.12291922712E+02  0.43918261519E+02  0.49499142437E+02  0.00000000000E+00 0.  1.
         21    1    1    2  504  503  0.19242142375E+02  0.12291922712E+02  0.76504761838E+01  0.24080722435E+02  0.00000000000E+00 0.  1.
<mgrwt>
<rscale>  2 0.22833121E+02</rscale>
<asrwt>0</asrwt>
<pdfrwt beam="1">  1       21 0.96268154E-02 0.22833121E+02</pdfrwt>
<pdfrwt beam="2">  1       21 0.16931637E-02 0.22833121E+02</pdfrwt>
<totfact> 0.95592198E+07</totfact>
</mgrwt>
</event>
<event>
 4    1  0.9374408E+003  0.2221441E+02  0.7546771E-02  0.1704570E+00
         21   -1    0    0  502  501  0.00000000000E+00  0.00000000000E+00  0.10399501549E+03  0.10399501549E+03  0.00000000000E+00 0. -1.
         21   -1    0    0  503  502 -0.00000000000E+00 -0.00000000000E+00 -0.55689870442E+01  0.55689870442E+01  0.00000000000E+00 0. -1.
         21    1    1    2  503  504 -0.46469839938E+01 -0.21722930663E+02  0.28143739305E+02  0.35854570683E+02  0.00000000000E+00 0.  1.
         21    1    1    2  504  501  0.46469839938E+01  0.21722930663E+02  0.70282289142E+02  0.73709431851E+02  0.00000000000E+00 0.  1.
<mgrwt>
<rscale>  2 0.22214414E+02</rscale>
<asrwt>0</asrwt>
<pdfrwt beam="1">  1       21 0.15999232E-01 0.22214414E+02</pdfrwt>
<pdfrwt beam="2">  1       21 0.85676731E-03 0.22214414E+02</pdfrwt>
<totfact> 0.11306267E+08</totfact>
</mgrwt>
</event>
<event>
 4    1  0.9374408E+003  0.2793030E+02  0.7546771E-02  0.1622162E+00
         21   -1    0    0  504  501  0.00000000000E+00  0.00000000000E+00  0.12211342915E+03  0.12211342915E+03  0.00000000000E+00 0. -1.
         21   -1    0    0  501  502 -0.00000000000E+00 -0.00000000000E+00 -0.54913487484E+02  0.54913487484E+02  0.00000000000E+00 0. -1.
         21    1    1    2  503  502  0.13522612441E+02  0.24438509903E+02 -0.49605759907E+02  0.56928316587E+02  0.00000000000E+00 0. -1.
         21    1    1    2  504  503 -0.13522612441E+02 -0.24438509903E+02  0.11680570157E+03  0.12009860005E+03  0.00000000000E+00 0. -1.
<mgrwt>
<rscale>  2 0.27930303E+02</rscale>
<asrwt>0</asrwt>
<pdfrwt beam="1">  1       21 0.18786681E-01 0.27930303E+02</pdfrwt>
<pdfrwt beam="2">  1       21 0.84482289E-02 0.27930303E+02</pdfrwt>
<totfact> 0.25215401E+06</totfact>
</mgrwt>
</event>
<event>
 4    1  0.9374408E+003  0.2223876E+02  0.7546771E-02  0.1704155E+00
         21   -1    0    0  504  501  0.00000000000E+00  0.00000000000E+00  0.15204086578E+02  0.15204086578E+02  0.00000000000E+00 0. -1.
         21   -1    0    0  501  502 -0.00000000000E+00 -0.00000000000E+00 -0.40443773129E+02  0.40443773129E+02  0.00000000000E+00 0. -1.
         21    1    1    2  503  502 -0.20604850144E+02  0.83667474632E+01 -0.31056816461E+00  0.22240925456E+02  0.00000000000E+00 0. -1.
         21    1    1    2  504  503  0.20604850144E+02 -0.83667474632E+01 -0.24929118386E+02  0.33406934251E+02  0.00000000000E+00 0. -1.
<mgrwt>
<rscale>  2 0.22238757E+02</rscale>
<asrwt>0</asrwt>
<pdfrwt beam="1">  1       21 0.23390903E-02 0.22238757E+02</pdfrwt>
<pdfrwt beam="2">  1       21 0.62221189E-02 0.22238757E+02</pdfrwt>
<totfact> 0.11761133E+08</totfact>
</mgrwt>
</event>
<event>
 4    1  0.9374408E+003  0.3602091E+02  0.7546771E-02  0.1539717E+00
         21   -1    0    0  504  501  0.00000000000E+00  0.00000000000E+00  0.71379330335E+01  0.71379330335E+01  0.00000000000E+00 0. -1.
         21   -1    0    0  501  502 -0.00000000000E+00 -0.00000000000E+00 -0.18566724149E+03  0.18566724149E+03  0.00000000000E+00 0. -1.
         21    1    1    2  503  502  0.23695797644E+02  0.27129602267E+02 -0.10322047945E+03  0.10932508186E+03  0.00000000000E+00 0. -1.
         21    1    1    2  504  503 -0.23695797644E+02 -0.27129602267E+02 -0.75308829000E+02  0.83480092660E+02  0.00000000000E+00 0. -1.
<mgrwt>
<rscale>  2 0.36020913E+02</rscale>
<asrwt>0</asrwt>
<pdfrwt beam="1">  1       21 0.10981436E-02 0.36020913E+02</pdfrwt>
<pdfrwt beam="2">  1       21 0.28564189E-01 0.36020913E+02</pdfrwt>
<totfact> 0.31077910E+07</totfact>
</mgrwt>
</event>
<event>
 4    1  0.9374408E+003  0.6239914E+02  0.7546771E-02  0.1388031E+00
         21   -1    0    0  502  501  0.00000000000E+00  0.00000000000E+00  0.20494512811E+04  0.20494512811E+04  0.00000000000E+00 0.  1.
         21   -1    0    0  504  502 -0.00000000000E+00 -0.00000000000E+00 -0.22389693781E+01  0.22389693781E+01  0.00000000000E+00 0.  1.
         21    1    1    2  503  501  0.53380732416E+02 -0.32313303182E+02  0.62436678988E+03  0.62747712346E+03  0.00000000000E+00 0.  1.
         21    1    1    2  504  503 -0.53380732416E+02  0.32313303182E+02  0.14228455218E+04  0.14242131270E+04  0.00000000000E+00 0.  1.
<mgrwt>
<rscale>  2 0.62399136E+02</rscale>
<asrwt>0</asrwt>
<pdfrwt beam="1">  1       21 0.31529870E+00 0.62399136E+02</pdfrwt>
<pdfrwt beam="2">  1       21 0.34445847E-03 0.62399136E+02</pdfrwt>
<totfact> 0.62909527E+05</totfact>
</mgrwt>
</event>
<event>
 4    1  0.9374408E+003  0.5621480E+02  0.7546771E-02  0.1414440E+00
         21   -1    0    0  502  501  0.00000000000E+00  0.00000000000E+00  0.25771737104E+02  0.25771737104E+02  0.00000000000E+00 0. -1.
         21   -1    0    0  503  502 -0.00000000000E+00 -0.00000000000E+00 -0.22750436869E+03  0.22750436869E+03  0.00000000000E+00 0. -1.
         21    1    1    2  503  504  0.55937793751E+02 -0.55737312938E+01 -0.14880479464E+02  0.58150940829E+02  0.00000000000E+00 0.  1.
         21    1    1    2  504  501 -0.55937793751E+02  0.55737312938E+01 -0.18685215213E+03  0.19512516497E+03  0.00000000000E+00 0.  1.
<mgrwt>
<rscale>  2 0.56214796E+02</rscale>
<asrwt>0</asrwt>
<pdfrwt beam="1">  1       21 0.39648825E-02 0.56214796E+02</pdfrwt>
<pdfrwt beam="2">  1       21 0.35000673E-01 0.56214796E+02</pdfrwt>
<totfact> 0.29710891E+06</totfact>
</mgrwt>
</event>
<event>
 4    1  0.9374408E+003  0.3913374E+02  0.7546771E-02  0.1514685E+00
         21   -1    0    0  502  501  0.00000000000E+00  0.00000000000E+00  0.64160032565E+01  0.64160032565E+01  0.00000000000E+00 0.  1.
         21   -1    0    0  504  502 -0.00000000000E+00 -0.00000000000E+00 -0.34817659509E+03  0.34817659509E+03  0.00000000000E+00 0.  1.
         21    1    1    2  503  501 -0.24326326847E+02 -0.30654196192E+02 -0.71459783254E+02  0.81473618704E+02  0.00000000000E+00 0. -1.
         21    1    1    2  504  503  0.24326326847E+02  0.30654196192E+02 -0.27030080858E+03  0.27311897964E+03  0.00000000000E+00 0. -1.
<mgrwt>
<rscale>  2 0.39133744E+02</rscale>
<asrwt>0</asrwt>
<pdfrwt beam="1">  1       21 0.98707747E-03 0.39133744E+02</pdfrwt>
<pdfrwt beam="2">  1       21 0.53565627E-01 0.39133744E+02</pdfrwt>
<totfact> 0.11083598E+07</totfact>
</mgrwt>
</event>
<event>
 4    1  0.9374408E+003  0.2548210E+02  0.7546771E-02  0.1654172E+00
         21   -1    0    0  504  501  0.00000000000E+00  0.00000000000E+00  0.20394587257E+02  0.20394587257E+02  0.00000000000E+00 0. -1.
         21   -1    0    0  501  502 -0.00000000000E+00 -0.00000000000E+00 -0.52359156341E+02  0.52359156341E+02  0.00000000000E+00 0. -1.
         21    1    1    2  503  502  0.23794138323E+02  0.91201133943E+01 -0.38755395358E+02  0.46382304344E+02  0.00000000000E+00 0.  1.
         21    1    1    2  504  503 -0.23794138323E+02 -0.91201133943E+01  0.67908262737E+01  0.26371439254E+02  0.00000000000E+00 0.  1.
<mgrwt>
<rscale>  2 0.25482101E+02</rscale>
<asrwt>0</asrwt>
<pdfrwt beam="1">  1       21 0.31376288E-02 0.25482101E+02</pdfrwt>
<pdfrwt beam="2">  1       21 0.80552549E-02 0.25482101E+02</pdfrwt>
<totfact> 0.50853872E+07</totfact>
</mgrwt>
</event>
<event>
 4    1  0.9374408E+003  0.2637073E+02  0.7546771E-02  0.1642060E+00
         21   -1    0    0  504  501  0.00000000000E+00  0.00000000000E+00  0.69506616233E+00  0.69506616233E+00  0.00000000000E+00 0.  1.
         21   -1    0    0  501  502 -0.00000000000E+00 -0.00000000000E+00 -0.11916346255E+04  0.11916346255E+04  0.00000000000E+00 0.  1.
         21    1    1    2  503  502 -0.23981455065E+02  0.10968366685E+02 -0.83422998429E+03  0.83464668091E+03  0.00000000000E+00 0.  1.
         21    1    1    2  504  503  0.23981455065E+02 -0.10968366685E+02 -0.35670957504E+03  0.35768301075E+03  0.00000000000E+00 0.  1.
<mgrwt>
<rscale>  2 0.26370727E+02</rscale>
<asrwt>0</asrwt>
<pdfrwt beam="1">  1       21 0.10693272E-03 0.26370727E+02</pdfrwt>
<pdfrwt beam="2">  1       21 0.18332933E+00 0.26370727E+02</pdfrwt>
<totfact> 0.17962263E+07</totfact>
</mgrwt>
</event>
<event>
 4    1  0.9374408E+003  0.2489918E+02  0.7546771E-02  0.1662454E+00
         21   -1    0    0  502  501  0.00000000000E+00  0.00000000000E+00  0.17141256238E+02  0.17141256238E+02  0.00000000000E+00 0.  1.
         21   -1    0    0  503  502 -0.00000000000E+00 -0.00000000000E+00 -0.56767307733E+02  0.56767307733E+02  0.00000000000E+00 0.  1.
         21    1    1    2  503  504  0.52149291352E+01  0.24346939652E+02  0.24477078345E+01  0.25019197229E+02  0.00000000000E+00 0.  1.
         21    1    1    2  504  501 -0.52149291352E+01 -0.24346939652E+02 -0.42073759330E+02  0.48889366742E+02  0.00000000000E+00 0.  1.
<mgrwt>
<rscale>  2 0.24899176E+02</rscale>
<asrwt>0</asrwt>
<pdfrwt beam="1">  1       21 0.26371164E-02 0.24899176E+02</pdfrwt>
<pdfrwt beam="2">  1       21 0.87334319E-02 0.24899176E+02</pdfrwt>
<totfact> 0.58074999E+07</totfact>
</mgrwt>
</event>
<event>
 4    1  0.9374408E+003  0.2003406E+02  0.7546771E-02  0.1744652E+00
         21   -1    0    0  504  501  0.00000000000E+00  0.00000000000E+00  0.13882318494E+01  0.13882318494E+01  0.00000000000E+00 0.  1.
         21   -1    0    0  501  502 -0.00000000000E+00 -0.00000000000E+00 -0.39115829829E+03  0.39115829829E+03  0.00000000000E+00 0.  1.
         21    1    1    2  503  502 -0.16037036549E+02 -0.12007381197E+02 -0.94638512290E+02  0.96735783209E+02  0.00000000000E+00 0. -1.
         21    1    1    2  504  503  0.16037036549E+02  0.12007381197E+02 -0.29513155415E+03  0.29581074693E+03  0.00000000000E+00 0. -1.
<mgrwt>
<rscale>  2 0.20034065E+02</rscale>
<asrwt>0</asrwt>
<pdfrwt beam="1">  1       21 0.21357402E-03 0.20034065E+02</pdfrwt>
<pdfrwt beam="2">  1       21 0.60178231E-01 0.20034065E+02</pdfrwt>
<totfact> 0.74644340E+07</totfact>
</mgrwt>
</event>
<event>
 4    1  0.9374408E+003  0.2096590E+02  0.7546771E-02  0.1726775E+00
         21   -1    0    0  502  501  0.00000000000E+00  0.00000000000E+00  0.30420074668E+02  0.30420074668E+02  0.00000000000E+00 0.  1.
         21   -1    0    0  503  502 -0.00000000000E+00 -0.00000000000E+00 -0.20397712957E+02  0.20397712957E+02  0.00000000000E+00 0.  1.
         21    1    1    2  503  504 -0.92118960929E+01  0.18833743920E+02  0.18731726661E+02  0.28114880817E+02  0.00000000000E+00 0. -1.
         21    1    1    2  504  501  0.92118960929E+01 -0.18833743920E+02 -0.87093649495E+01  0.22702906807E+02  0.00000000000E+00 0. -1.
<mgrwt>
<rscale>  2 0.20965899E+02</rscale>
<asrwt>0</asrwt>
<pdfrwt beam="1">  1       21 0.46800115E-02 0.20965899E+02</pdfrwt>
<pdfrwt beam="2">  1       21 0.31381097E-02 0.20965899E+02</pdfrwt>
<totfact> 0.11547248E+08</totfact>
</mgrwt>
</event>
<event>
 4    1  0.9374408E+003  0.2073256E+02  0.7546771E-02  0.1731141E+00
         21   -1    0    0  504  501  0.00000000000E+00  0.00000000000E+00  0.12669055542E+03  0.12669055542E+03  0.00000000000E+00 0. -1.
         21   -1    0    0  501  502 -0.00000000000E+00 -0.00000000000E+00 -0.95657096264E+01  0.95657096264E+01  0.00000000000E+00 0. -1.
         21    1    1    2  503  502  0.85564465583E+01  0.18884551679E+02  0.38341281832E+01  0.21084107966E+02  0.00000000000E+00 0. -1.
         21    1    1    2  504  503 -0.85564465583E+01 -0.18884551679E+02  0.11329071761E+03  0.11517215708E+03  0.00000000000E+00 0. -1.
<mgrwt>
<rscale>  2 0.20732561E+02</rscale>
<asrwt>0</asrwt>
<pdfrwt beam="1">  1       21 0.19490853E-01 0.20732561E+02</pdfrwt>
<pdfrwt beam="2">  1       21 0.14716477E-02 0.20732561E+02</pdfrwt>
<totfact> 0.35048977E+07</totfact>
</mgrwt>
</event>
<event>
 4    1  0.9374408E+003  0.2222646E+02  0.7546771E-02  0.1704365E+00
         21   -1    0    0  502  501  0.00000000000E+00  0.00000000000E+00  0.10705631646E+03  0.10705631646E+03  0.00000000000E+00 0. -1.
         21   -1    0    0  504  502 -0.00000000000E+00 -0.00000000000E+00 -0.49567621081E+01  0.49567621081E+01  0.00000000000E+00 0. -1.
         21    1    1    2  503  501  0.21896129320E+02 -0.38177398688E+01  0.65765918649E+02  0.69420254052E+02  0.00000000000E+00 0.  1.
         21    1    1    2  504  503 -0.21896129320E+02  0.38177398688E+01  0.36333635704E+02  0.42592824517E+02  0.00000000000E+00 0.  1.
<mgrwt>
<rscale>  2 0.22226462E+02</rscale>
<asrwt>0</asrwt>
<pdfrwt beam="1">  1       21 0.16470201E-01 0.22226462E+02</pdfrwt>
<pdfrwt beam="2">  1       21 0.76257887E-03 0.22226462E+02</pdfrwt>
<totfact> 0.12801549E+08</totfact>
</mgrwt>
</event>
<event>
 4    1  0.9374408E+003  0.2096767E+02  0.7546771E-02  0.1726742E+00
         21   -1    0    0  502  501  0.00000000000E+00  0.00000000000E+00  0.61627838050E+00  0.61627838050E+00  0.00000000000E+00 0. -1.
         21   -1    0    0  504  502 -0.00000000000E+00 -0.00000000000E+00 -0.10410458193E+04  0.10410458193E+04  0.00000000000E+00 0. -1.
         21    1    1    2  503  501  0.18758998453E+02 -0.93671407376E+01 -0.22801852251E+03  0.22898054493E+03  0.00000000000E+00 0.  1.
         21    1    1    2  504  503 -0.18758998453E+02  0.93671407376E+01 -0.81241101844E+03  0.81268155278E+03  0.00000000000E+00 0.  1.
<mgrwt>
<rscale>  2 0.20967674E+02</rscale>
<asrwt>0</asrwt>
<pdfrwt beam="1">  1       21 0.94813296E-04 0.20967674E+02</pdfrwt>
<pdfrwt beam="2">  1       21 0.16015881E+00 0.20967674E+02</pdfrwt>
<totfact> 0.28653500E+07</totfact>
</mgrwt>
</event>
<event>
 4    1  0.9374408E+003  0.2076894E+02  0.7546771E-02  0.1730455E+00
         21   -1    0    0  504  501  0.00000000000E+00  0.00000000000E+00  0.23763961119E+03  0.23763961119E+03  0.00000000000E+00 0. -1.
         21   -1    0    0  501  502 -0.00000000000E+00 -0.00000000000E+00 -0.30574874742E+01  0.30574874742E+01  0.00000000000E+00 0. -1.
         21    1    1    2  503  502  0.98378607874E+01 -0.18291126200E+02  0.19400606777E+03  0.19511458975E+03  0.00000000000E+00 0.  1.
         21    1    1    2  504  503 -0.98378607874E+01  0.18291126200E+02  0.40576055939E+02  0.45582508905E+02  0.00000000000E+00 0.  1.
<mgrwt>
<rscale>  2 0.20768938E+02</rscale>
<asrwt>0</asrwt>
<pdfrwt beam="1">  1       21 0.36559926E-01 0.20768938E+02</pdfrwt>
<pdfrwt beam="2">  1       21 0.47038288E-03 0.20768938E+02</pdfrwt>
<totfact> 0.62203262E+07</totfact>
</mgrwt>
</event>
<event>
 4    1  0.9374408E+003  0.2264049E+02  0.7546771E-02  0.1697405E+00
         21   -1    0    0  502  501  0.00000000000E+00  0.00000000000E+00  0.53567901104E+02  0.53567901104E+02  0.00000000000E+00 0.  1.
         21   -1    0    0  504  502 -0.00000000000E+00 -0.00000000000E+00 -0.12994648174E+02  0.12994648174E+02  0.00000000000E+00 0.  1.
         21    1    1    2  503  501 -0.29060387050E+01 -0.22453213647E+02  0.31987405789E+01  0.22865340700E+02  0.00000000000E+00 0. -1.
         21    1    1    2  504  503  0.29060387050E+01  0.22453213647E+02  0.37374512351E+02  0.43697208578E+02  0.00000000000E+00 0. -1.
<mgrwt>
<rscale>  2 0.22640492E+02</rscale>
<asrwt>0</asrwt>
<pdfrwt beam="1">  1       21 0.82412155E-02 0.22640492E+02</pdfrwt>
<pdfrwt beam="2">  1       21 0.19991767E-02 0.22640492E+02</pdfrwt>
<totfact> 0.95457297E+07</totfact>
</mgrwt>
</event>
<event>
 4    1  0.9374408E+003  0.2647788E+02  0.7546771E-02  0.1640639E+00
         21   -1    0    0  502  501  0.00000000000E+00  0.00000000000E+00  0.46982848047E+03  0.46982848047E+03  0.00000000000E+00 0. -1.
         21   -1    0    0  504  502 -0.00000000000E+00 -0.00000000000E+00 -0.23200502008E+01  0.23200502008E+01  0.00000000000E+00 0. -1.
         21    1    1    2  503  501  0.14957994511E+02  0.21848038180E+02  0.92735855052E+02  0.96441781321E+02  0.00000000000E+00 0. -1.
         21    1    1    2  504  503 -0.14957994511E+02 -0.21848038180E+02  0.37477257522E+03  0.37570674935E+03  0.00000000000E+00 0. -1.
<mgrwt>
<rscale>  2 0.26477885E+02</rscale>
<asrwt>0</asrwt>
<pdfrwt beam="1">  1       21 0.72281229E-01 0.26477885E+02</pdfrwt>
<pdfrwt beam="2">  1       21 0.35693117E-03 0.26477885E+02</pdfrwt>
<totfact> 0.25953651E+07</totfact>
</mgrwt>
</event>
<event>
 4    1  0.9374408E+003  0.3709483E+02  0.7546771E-02  0.1530748E+00
         21   -1    0    0  504  501  0.00000000000E+00  0.00000000000E+00  0.15499410797E+03  0.15499410797E+03  0.00000000000E+00 0.  1.
         21   -1    0    0  501  502 -0.00000000000E+00 -0.00000000000E+00 -0.13449911022E+02  0.13449911022E+02  0.00000000000E+00 0.  1.
         21    1    1    2  503  502 -0.35909427017E+02 -0.93026676573E+01  0.21667949929E+02  0.42959592972E+02  0.00000000000E+00 0.  1.
         21    1    1    2  504  503  0.35909427017E+02  0.93026676573E+01  0.11987624701E+03  0.12548442602E+03  0.00000000000E+00 0.  1.
<mgrwt>
<rscale>  2 0.37094832E+02</rscale>
<asrwt>0</asrwt>
<pdfrwt beam="1">  1       21 0.23845246E-01 0.37094832E+02</pdfrwt>
<pdfrwt beam="2">  1       21 0.20692172E-02 0.37094832E+02</pdfrwt>
<totfact> 0.16316838E+07</totfact>
</mgrwt>
</event>
<event>
 4    1  0.9374408E+003  0.2341240E+02  0.7546771E-02  0.1684911E+00
         21   -1    0    0  502  501  0.00000000000E+00  0.00000000000E+00  0.21708460251E+03  0.21708460251E+03  0.00000000000E+00 0.  1.
         21   -1    0    0  504  502 -0.00000000000E+00 -0.00000000000E+00 -0.27194895406E+01  0.27194895406E+01  0.00000000000E+00 0.  1.
         21    1    1    2  503  501  0.36224255455E+01 -0.23130469965E+02  0.13657258386E+03  0.13856482696E+03  0.00000000000E+00 0. -1.
         21    1    1    2  504  503 -0.36224255455E+01  0.23130469965E+02  0.77792529116E+02  0.81239265100E+02  0.00000000000E+00 0. -1.
<mgrwt>
<rscale>  2 0.23412403E+02</rscale>
<asrwt>0</asrwt>
<pdfrwt beam="1">  1       21 0.33397618E-01 0.23412403E+02</pdfrwt>
<pdfrwt beam="2">  1       21 0.41838318E-03 0.23412403E+02</pdfrwt>
<totfact> 0.90091516E+07</totfact>
</mgrwt>
</event>
<event>
 4    1  0.9374408E+003  0.2732368E+02  0.7546771E-02  0.1629707E+00
         21   -1    0    0  502  501  0.00000000000E+00  0.00000000000E+00  0.19646921499E+02  0.19646921499E+02  0.00000000000E+00 0. -1.
         21   -1    0    0  504  502 -0.00000000000E+00 -0.00000000000E+00 -0.44810096168E+02  0.44810096168E+02  0.00000000000E+00 0. -1.
         21    1    1    2  503  501 -0.20732615465E+02 -0.17797245276E+02 -0.25145602842E+02  0.37133335774E+02  0.00000000000E+00 0. -1.
         21    1    1    2  504  503  0.20732615465E+02  0.17797245276E+02 -0.17571826955E-01  0.27323681893E+02  0.00000000000E+00 0. -1.
<mgrwt>
<rscale>  2 0.27323676E+02</rscale>
<asrwt>0</asrwt>
<pdfrwt beam="1">  1       21 0.30226033E-02 0.27323676E+02</pdfrwt>
<pdfrwt beam="2">  1       21 0.68938610E-02 0.27323676E+02</pdfrwt>
<totfact> 0.70732069E+07</totfact>
</mgrwt>
</event>
<event>
 4    1  0.9374408E+003  0.2372974E+02  0.7546771E-02  0.1679947E+00
         21   -1    0    0  504  501  0.00000000000E+00  0.00000000000E+00  0.12444912256E+04  0.12444912256E+04  0.00000000000E+00 0.  1.
         21   -1    0    0  501  502 -0.00000000000E+00 -0.00000000000E+00 -0.80703039973E+00  0.80703039973E+00  0.00000000000E+00 0.  1.
         21    1    1    2  503  502 -0.10182427215E+02 -0.21434054425E+02  0.10345481244E+04  0.10348202367E+04  0.00000000000E+00 0.  1.
         21    1    1    2  504  503  0.10182427215E+02  0.21434054425E+02  0.20913607081E+03  0.21047801934E+03  0.00000000000E+00 0.  1.
<mgrwt>
<rscale>  2 0.23729739E+02</rscale>
<asrwt>0</asrwt>
<pdfrwt beam="1">  1       21 0.19145865E+00 0.23729739E+02</pdfrwt>
<pdfrwt beam="2">  1       21 0.12415952E-03 0.23729739E+02</pdfrwt>
<totfact> 0.12815662E+07</totfact>
</mgrwt>
</event>
<event>
 4    1  0.9374408E+003  0.2450615E+02  0.7546771E-02  0.1668198E+00
         21   -1    0    0  502  501  0.00000000000E+00  0.00000000000E+00  0.32623102995E+02  0.32623102995E+02  0.00000000000E+00 0. -1.
         21   -1    0    0  503  502 -0.00000000000E+00 -0.00000000000E+00 -0.60052884133E+02  0.60052884133E+02  0.00000000000E+00 0. -1.
         21    1    1    2  503  504 -0.78913672569E+01 -0.23200811914E+02 -0.52302429430E+02  0.57758942813E+02  0.00000000000E+00 0.  1.
         21    1    1    2  504  501  0.78913672569E+01  0.23200811914E+02  0.24872648292E+02  0.34917044315E+02  0.00000000000E+00 0.  1.
<mgrwt>
<rscale>  2 0.24506149E+02</rscale>
<asrwt>0</asrwt>
<pdfrwt beam="1">  1       21 0.50189390E-02 0.24506149E+02</pdfrwt>
<pdfrwt beam="2">  1       21 0.92389052E-02 0.24506149E+02</pdfrwt>
<totfact> 0.19151308E+07</totfact>
</mgrwt>
</event>
<event>
 4    1  0.9374408E+003  0.2280368E+02  0.7546771E-02  0.1694712E+00
         21   -1    0    0  504  501  0.00000000000E+00  0.00000000000E+00  0.60614923317E+03  0.60614923317E+03  0.00000000000E+00 0. -1.
         21   -1    0    0  501  502 -0.00000000000E+00 -0.00000000000E+00 -0.12614897322E+01  0.12614897322E+01  0.00000000000E+00 0. -1.
         21    1    1    2  503  502  0.16863227307E+02  0.15350548586E+02  0.13065799981E+03  0.13263303017E+03  0.00000000000E+00 0. -1.
         21    1    1    2  504  503 -0.16863227307E+02 -0.15350548586E+02  0.47422974363E+03  0.47477769274E+03  0.00000000000E+00 0. -1.
<mgrwt>
<rscale>  2 0.22803679E+02</rscale>
<asrwt>0</asrwt>
<pdfrwt beam="1">  1       21 0.93253496E-01 0.22803679E+02</pdfrwt>
<pdfrwt beam="2">  1       21 0.19407583E-03 0.22803679E+02</pdfrwt>
<totfact> 0.35704157E+07</totfact>
</mgrwt>
</event>
<event>
 4    1  0.9374408E+003  0.2287352E+02  0.7546771E-02  0.1693568E+00
         21   -1    0    0  502  501  0.00000000000E+00  0.00000000000E+00  0.17986217243E+03  0.17986217243E+03  0.00000000000E+00 0.  1.
         21   -1    0    0  504  502 -0.00000000000E+00 -0.00000000000E+00 -0.55498864111E+01  0.55498864111E+01  0.00000000000E+00 0.  1.
         21    1    1    2  503  501  0.18581991679E+02 -0.13338203839E+02  0.23204695696E+02  0.32583063066E+02  0.00000000000E+00 0. -1.
         21    1    1    2  504  503 -0.18581991679E+02  0.13338203839E+02  0.15110759032E+03  0.15282899577E+03  0.00000000000E+00 0. -1.
<mgrwt>
<rscale>  2 0.22873524E+02</rscale>
<asrwt>0</asrwt>
<pdfrwt beam="1">  1       21 0.27671099E-01 0.22873524E+02</pdfrwt>
<pdfrwt beam="2">  1       21 0.85382882E-03 0.22873524E+02</pdfrwt>
<totfact> 0.43842681E+07</totfact>
</mgrwt>
</event>
<event>
 4    1  0.9374408E+003  0.6093428E+02  0.7546771E-02  0.1393952E+00
         21   -1    0    0  502  501  0.00000000000E+00  0.00000000000E+00  0.25451216847E+02  0.25451216847E+02  0.00000000000E+00 0. -1.
         21   -1    0    0  503  502 -0.00000000000E+00 -0.00000000000E+00 -0.20683172993E+03  0.20683172993E+03  0.00000000000E+00 0. -1.
         21    1    1    2  503  504 -0.57353881229E+02 -0.20579580880E+02 -0.15373500317E+03  0.16537060816E+03  0.00000000000E+00 0. -1.
         21    1    1    2  504  501  0.57353881229E+02  0.20579580880E+02 -0.27645509905E+02  0.66912338616E+02  0.00000000000E+00 0. -1.
<mgrwt>
<rscale>  2 0.60934283E+02</rscale>
<asrwt>0</asrwt>
<pdfrwt beam="1">  1       21 0.39155718E-02 0.60934283E+02</pdfrwt>
<pdfrwt beam="2">  1       21 0.31820266E-01 0.60934283E+02</pdfrwt>
<totfact> 0.36576843E+06</totfact>
</mgrwt>
</event>
<event>
 4    1  0.9374408E+003  0.2015833E+02  0.7546771E-02  0.1742198E+00
         21   -1    0    0  504  501  0.00000000000E+00  0.00000000000E+00  0.45898875052E+02  0.45898875052E+02  0.00000000000E+00 0. -1.
         21   -1    0    0  501  502 -0.00000000000E+00 -0.00000000000E+00 -0.19715380473E+02  0.19715380473E+02  0.00000000000E+00 0. -1.
         21    1    1    2  503  502  0.75432246042E+01  0.18693795820E+02 -0.11259509670E+02  0.23089711943E+02  0.00000000000E+00 0. -1.
         21    1    1    2  504  503 -0.75432246042E+01 -0.18693795820E+02  0.37443004250E+02  0.42524543581E+02  0.00000000000E+00 0. -1.
<mgrwt>
<rscale>  2 0.20158329E+02</rscale>
<asrwt>0</asrwt>
<pdfrwt beam="1">  1       21 0.70613654E-02 0.20158329E+02</pdfrwt>
<pdfrwt beam="2">  1       21 0.30331355E-02 0.20158329E+02</pdfrwt>
<totfact> 0.62431622E+07</totfact>
</mgrwt>
</event>
<event>
 4    1  0.9374408E+003  0.3398019E+02  0.7546771E-02  0.1557848E+00
         21   -1    0    0  502  501  0.00000000000E+00  0.00000000000E+00  0.56859519817E+03  0.56859519817E+03  0.00000000000E+00 0.  1.
         21   -1    0    0  504  502 -0.00000000000E+00 -0.00000000000E+00 -0.72574027150E+01  0.72574027150E+01  0.00000000000E+00 0.  1.
         21    1    1    2  503  501 -0.13468659625E+02 -0.31196930902E+02  0.36323528900E+02  0.49739843601E+02  0.00000000000E+00 0.  1.
         21    1    1    2  504  503  0.13468659625E+02  0.31196930902E+02  0.52501426655E+03  0.52611275728E+03  0.00000000000E+00 0.  1.
<mgrwt>
<rscale>  2 0.33980190E+02</rscale>
<asrwt>0</asrwt>
<pdfrwt beam="1">  1       21 0.87476149E-01 0.33980190E+02</pdfrwt>
<pdfrwt beam="2">  1       21 0.11165239E-02 0.33980190E+02</pdfrwt>
<totfact> 0.32529360E+06</totfact>
</mgrwt>
</event>
<event>
 4    1  0.9374408E+003  0.2040407E+02  0.7546771E-02  0.1737410E+00
         21   -1    0    0  502  501  0.00000000000E+00  0.00000000000E+00  0.16359220870E+01  0.16359220870E+01  0.00000000000E+00 0. -1.
         21   -1    0    0  503  502 -0.00000000000E+00 -0.00000000000E+00 -0.36077358400E+03  0.36077358400E+03  0.00000000000E+00 0. -1.
         21    1    1    2  503  504 -0.11430782184E+02  0.16901574756E+02 -0.81216407180E+02  0.83740257976E+02  0.00000000000E+00 0.  1.
         21    1    1    2  504  501  0.11430782184E+02 -0.16901574756E+02 -0.27792125473E+03  0.27866924811E+03  0.00000000000E+00 0.  1.
<mgrwt>
<rscale>  2 0.20404068E+02</rscale>
<asrwt>0</asrwt>
<pdfrwt beam="1">  1       21 0.25168011E-03 0.20404068E+02</pdfrwt>
<pdfrwt beam="2">  1       21 0.55503675E-01 0.20404068E+02</pdfrwt>
<totfact> 0.69444256E+07</totfact>
</mgrwt>
</event>
<event>
 4    1  0.9374408E+003  0.9592322E+02  0.7546771E-02  0.1289110E+00
         21   -1    0    0  504  501  0.00000000000E+00  0.00000000000E+00  0.37589009633E+03  0.37589009633E+03  0.00000000000E+00 0. -1.
         21   -1    0    0  501  502 -0.00000000000E+00 -0.00000000000E+00 -0.27370805060E+02  0.27370805060E+02  0.00000000000E+00 0. -1.
         21    1    1    2  503  502  0.48189995509E+02 -0.82939671861E+02  0.10871660703E+03  0.14498470774E+03  0.00000000000E+00 0. -1.
         21    1    1    2  504  503 -0.48189995509E+02  0.82939671861E+02  0.23980268424E+03  0.25827619365E+03  0.00000000000E+00 0. -1.
<mgrwt>
<rscale>  2 0.95923224E+02</rscale>
<asrwt>0</asrwt>
<pdfrwt beam="1">  1       21 0.57829242E-01 0.95923224E+02</pdfrwt>
<pdfrwt beam="2">  1       21 0.42108934E-02 0.95923224E+02</pdfrwt>
<totfact> 0.10077313E+06</totfact>
</mgrwt>
</event>
<event>
 4    1  0.9374408E+003  0.3089673E+02  0.7546771E-02  0.1588383E+00
         21   -1    0    0  502  501  0.00000000000E+00  0.00000000000E+00  0.10256580396E+02  0.10256580396E+02  0.00000000000E+00 0.  1.
         21   -1    0    0  504  502 -0.00000000000E+00 -0.00000000000E+00 -0.17157859343E+03  0.17157859343E+03  0.00000000000E+00 0.  1.
         21    1    1    2  503  501  0.27215899917E+02 -0.14625408928E+02 -0.19162094227E+02  0.36356480163E+02  0.00000000000E+00 0.  1.
         21    1    1    2  504  503 -0.27215899917E+02  0.14625408928E+02 -0.14215991880E+03  0.14547869366E+03  0.00000000000E+00 0.  1.
<mgrwt>
<rscale>  2 0.30896728E+02</rscale>
<asrwt>0</asrwt>
<pdfrwt beam="1">  1       21 0.15779355E-02 0.30896728E+02</pdfrwt>
<pdfrwt beam="2">  1       21 0.26396706E-01 0.30896728E+02</pdfrwt>
<totfact> 0.20037477E+07</totfact>
</mgrwt>
</event>
<event>
 4    1  0.9374408E+003  0.2177005E+02  0.7546771E-02  0.1712259E+00
         21   -1    0    0  504  501  0.00000000000E+00  0.00000000000E+00  0.72116663771E+02  0.72116663771E+02  0.00000000000E+00 0. -1.
         21   -1    0    0  501  502 -0.00000000000E+00 -0.00000000000E+00 -0.13487316696E+02  0.13487316696E+02  0.00000000000E+00 0. -1.
         21    1    1    2  503  502 -0.16688487814E+02 -0.13979606248E+02 -0.13341675925E+01  0.21810892223E+02  0.00000000000E+00 0. -1.
         21    1    1    2  504  503  0.16688487814E+02  0.13979606248E+02  0.59963514668E+02  0.63793088244E+02  0.00000000000E+00 0. -1.
<mgrwt>
<rscale>  2 0.21770049E+02</rscale>
<asrwt>0</asrwt>
<pdfrwt beam="1">  1       21 0.11094871E-01 0.21770049E+02</pdfrwt>
<pdfrwt beam="2">  1       21 0.20749718E-02 0.21770049E+02</pdfrwt>
<totfact> 0.54656537E+07</totfact>
</mgrwt>
</event>
<event>
 4    1  0.9374408E+003  0.2543923E+02  0.7546771E-02  0.1654772E+00
         21   -1    0    0  504  501  0.00000000000E+00  0.00000000000E+00  0.47257671207E+02  0.47257671207E+02  0.00000000000E+00 0. -1.
         21   -1    0    0  501  502 -0.00000000000E+00 -0.00000000000E+00 -0.18174709837E+02  0.18174709837E+02  0.00000000000E+00 0. -1.
         21    1    1    2  503  502  0.21017080038E+01 -0.25352262779E+02  0.30785531542E+02  0.39936241146E+02  0.00000000000E+00 0.  1.
         21    1    1    2  504  503 -0.21017080038E+01  0.25352262779E+02 -0.17025701725E+01  0.25496139898E+02  0.00000000000E+00 0.  1.
<mgrwt>
<rscale>  2 0.25439230E+02</rscale>
<asrwt>0</asrwt>
<pdfrwt beam="1">  1       21 0.72704109E-02 0.25439230E+02</pdfrwt>
<pdfrwt beam="2">  1       21 0.27961092E-02 0.25439230E+02</pdfrwt>
<totfact> 0.71961265E+07</totfact>
</mgrwt>
</event>
<event>
 4    1  0.9374408E+003  0.3769224E+02  0.7546771E-02  0.1525915E+00
         21   -1    0    0  502  501  0.00000000000E+00  0.00000000000E+00  0.63899632766E+02  0.63899632766E+02  0.00000000000E+00 0. -1.
         21   -1    0    0  503  502 -0.00000000000E+00 -0.00000000000E+00 -0.32616989009E+02  0.32616989009E+02  0.00000000000E+00 0. -1.
         21    1    1    2  503  504 -0.14578197571E+02 -0.34758903689E+02  0.42869852874E+02  0.57083531036E+02  0.00000000000E+00 0.  1.
         21    1    1    2  504  501  0.14578197571E+02  0.34758903689E+02 -0.11587209118E+02  0.39433090739E+02  0.00000000000E+00 0.  1.
<mgrwt>
<rscale>  2 0.37692244E+02</rscale>
<asrwt>0</asrwt>
<pdfrwt beam="1">  1       21 0.98307127E-02 0.37692244E+02</pdfrwt>
<pdfrwt beam="2">  1       21 0.50179983E-02 0.37692244E+02</pdfrwt>
<totfact> 0.18707315E+07</totfact>
</mgrwt>
</event>
<event>
 4    1  0.9374408E+003  0.2048002E+02  0.7546771E-02  0.1735947E+00
         21   -1    0    0  503  501  0.00000000000E+00  0.00000000000E+00  0.25078520936E+03  0.25078520936E+03  0.00000000000E+00 0. -1.
         21   -1    0    0  501  502 -0.00000000000E+00 -0.00000000000E+00 -0.31708705011E+01  0.31708705011E+01  0.00000000000E+00 0. -1.
         21    1    1    2  503  504 -0.31157877857E+01 -0.20241615197E+02  0.21109487968E+03  0.21208601874E+03  0.00000000000E+00 0.  1.
         21    1    1    2  504  502  0.31157877857E+01  0.20241615197E+02  0.36519459181E+02  0.41870061120E+02  0.00000000000E+00 0.  1.
<mgrwt>
<rscale>  2 0.20480018E+02</rscale>
<asrwt>0</asrwt>
<pdfrwt beam="1">  1       21 0.38582324E-01 0.20480018E+02</pdfrwt>
<pdfrwt beam="2">  1       21 0.48782643E-03 0.20480018E+02</pdfrwt>
<totfact> 0.53157837E+07</totfact>
</mgrwt>
</event>
<event>
 4    1  0.9374408E+003  0.2204032E+02  0.7546771E-02  0.1707556E+00
         21   -1    0    0  503  501  0.00000000000E+00  0.00000000000E+00  0.34093449448E+03  0.34093449448E+03  0.00000000000E+00 0.  1.
         21   -1    0    0  501  502 -0.00000000000E+00 -0.00000000000E+00 -0.21164431256E+01  0.21164431256E+01  0.00000000000E+00 0.  1.
         21    1    1    2  503  504 -0.19436203617E+02 -0.10392765446E+02  0.26746073921E+03  0.26836732775E+03  0.00000000000E+00 0.  1.
         21    1    1    2  504  502  0.19436203617E+02  0.10392765446E+02  0.71357312144E+02  0.74683609856E+02  0.00000000000E+00 0.  1.
<mgrwt>
<rscale>  2 0.22040317E+02</rscale>
<asrwt>0</asrwt>
<pdfrwt beam="1">  1       21 0.52451417E-01 0.22040317E+02</pdfrwt>
<pdfrwt beam="2">  1       21 0.32560691E-03 0.22040317E+02</pdfrwt>
<totfact> 0.54418607E+07</totfact>
</mgrwt>
</event>
<event>
 4    1  0.9374408E+003  0.2203054E+02  0.7546771E-02  0.1707724E+00
         21   -1    0    0  503  501  0.00000000000E+00  0.00000000000E+00  0.77468165233E+03  0.77468165233E+03  0.00000000000E+00 0. -1.
         21   -1    0    0  501  502 -0.00000000000E+00 -0.00000000000E+00 -0.79815941339E+00  0.79815941339E+00  0.00000000000E+00 0. -1.
         21    1    1    2  503  504  0.18179881266E+02  0.12443328924E+02  0.56675385751E+03  0.56718187517E+03  0.00000000000E+00 0. -1.
         21    1    1    2  504  502 -0.18179881266E+02 -0.12443328924E+02  0.20712963541E+03  0.20829793658E+03  0.00000000000E+00 0. -1.
<mgrwt>
<rscale>  2 0.22030536E+02</rscale>
<asrwt>0</asrwt>
<pdfrwt beam="1">  1       21 0.11918119E+00 0.22030536E+02</pdfrwt>
<pdfrwt beam="2">  1       21 0.12279438E-03 0.22030536E+02</pdfrwt>
<totfact> 0.39788491E+07</totfact>
</mgrwt>
</event>
<event>
 4    1  0.9374408E+003  0.2977853E+02  0.7546771E-02  0.1600550E+00
         21   -1    0    0  502  501  0.00000000000E+00  0.00000000000E+00  0.34146502793E+03  0.34146502793E+03  0.00000000000E+00 0. -1.
         21   -1    0    0  504  502 -0.00000000000E+00 -0.00000000000E+00 -0.43746532738E+01  0.43746532738E+01  0.00000000000E+00 0. -1.
         21    1    1    2  503  501 -0.21420000073E+02  0.20686814335E+02  0.58313839636E+02  0.65477206596E+02  0.00000000000E+00 0.  1.
         21    1    1    2  504  503  0.21420000073E+02 -0.20686814335E+02  0.27877653502E+03  0.28036247460E+03  0.00000000000E+00 0.  1.
<mgrwt>
<rscale>  2 0.29778527E+02</rscale>
<asrwt>0</asrwt>
<pdfrwt beam="1">  1       21 0.52533060E-01 0.29778527E+02</pdfrwt>
<pdfrwt beam="2">  1       21 0.67302385E-03 0.29778527E+02</pdfrwt>
<totfact> 0.19742798E+07</totfact>
</mgrwt>
</event>
<event>
 4    1  0.9374408E+003  0.2422685E+02  0.7546771E-02  0.1672362E+00
         21   -1    0    0  502  501  0.00000000000E+00  0.00000000000E+00  0.16983009860E+03  0.16983009860E+03  0.00000000000E+00 0.  1.
         21   -1    0    0  503  502 -0.00000000000E+00 -0.00000000000E+00 -0.39993749205E+01  0.39993749205E+01  0.00000000000E+00 0.  1.
         21    1    1    2  503  504  0.18345220605E+02  0.15823816491E+02  0.50880003656E+02  0.56353483117E+02  0.00000000000E+00 0. -1.
         21    1    1    2  504  501 -0.18345220605E+02 -0.15823816491E+02  0.11495072003E+03  0.11747599041E+03  0.00000000000E+00 0. -1.
<mgrwt>
<rscale>  2 0.24226851E+02</rscale>
<asrwt>0</asrwt>
<pdfrwt beam="1">  1       21 0.26127702E-01 0.24226851E+02</pdfrwt>
<pdfrwt beam="2">  1       21 0.61528858E-03 0.24226851E+02</pdfrwt>
<totfact> 0.80360730E+07</totfact>
</mgrwt>
</event>
<event>
 4    1  0.9374408E+003  0.2157371E+02  0.7546771E-02  0.1715730E+00
         21   -1    0    0  504  501  0.00000000000E+00  0.00000000000E+00  0.20258110965E+01  0.20258110965E+01  0.00000000000E+00 0.  1.
         21   -1    0    0  501  502 -0.00000000000E+00 -0.00000000000E+00 -0.57189201533E+03  0.57189201533E+03  0.00000000000E+00 0.  1.
         21    1    1    2  503  502  0.64616938910E+01 -0.20583280305E+02 -0.62976774353E+02  0.66569505210E+02  0.00000000000E+00 0.  1.
         21    1    1    2  504  503 -0.64616938910E+01  0.20583280305E+02 -0.50688942988E+03  0.50734832121E+03  0.00000000000E+00 0.  1.
<mgrwt>
<rscale>  2 0.21573709E+02</rscale>
<asrwt>0</asrwt>
<pdfrwt beam="1">  1       21 0.31166294E-03 0.21573709E+02</pdfrwt>
<pdfrwt beam="2">  1       21 0.87983474E-01 0.21573709E+02</pdfrwt>
<totfact> 0.20129601E+07</totfact>
</mgrwt>
</event>
<event>
 4    1  0.9374408E+003  0.2151541E+02  0.7546771E-02  0.1716770E+00
         21   -1    0    0  502  501  0.00000000000E+00  0.00000000000E+00  0.28321333556E+01  0.28321333556E+01  0.00000000000E+00 0. -1.
         21   -1    0    0  504  502 -0.00000000000E+00 -0.00000000000E+00 -0.21226818090E+03  0.21226818090E+03  0.00000000000E+00 0. -1.
         21    1    1    2  503  501 -0.63454729322E+01  0.20558403850E+02 -0.53140778599E+02  0.57331102778E+02  0.00000000000E+00 0. -1.
         21    1    1    2  504  503  0.63454729322E+01 -0.20558403850E+02 -0.15629526894E+03  0.15776921147E+03  0.00000000000E+00 0. -1.
<mgrwt>
<rscale>  2 0.21515413E+02</rscale>
<asrwt>0</asrwt>
<pdfrwt beam="1">  1       21 0.43571263E-03 0.21515413E+02</pdfrwt>
<pdfrwt beam="2">  1       21 0.32656658E-01 0.21515413E+02</pdfrwt>
<totfact> 0.86491525E+07</totfact>
</mgrwt>
</event>
<event>
 4    1  0.9374408E+003  0.9590546E+02  0.7546771E-02  0.1289150E+00
         21   -1    0    0  502  501  0.00000000000E+00  0.00000000000E+00  0.18884878622E+03  0.18884878622E+03  0.00000000000E+00 0.  1.
         21   -1    0    0  504  502 -0.00000000000E+00 -0.00000000000E+00 -0.55032205756E+02  0.55032205756E+02  0.00000000000E+00 0.  1.
         21    1    1    2  503  501 -0.95900670478E+02 -0.95829781883E+00  0.10825583175E+03  0.14462773607E+03  0.00000000000E+00 0.  1.
         21    1    1    2  504  503  0.95900670478E+02  0.95829781883E+00  0.25560748714E+02  0.99253255905E+02  0.00000000000E+00 0.  1.
<mgrwt>
<rscale>  2 0.95905458E+02</rscale>
<asrwt>0</asrwt>
<pdfrwt beam="1">  1       21 0.29053659E-01 0.95905458E+02</pdfrwt>
<pdfrwt beam="2">  1       21 0.84664933E-02 0.95905458E+02</pdfrwt>
<totfact> 0.12254326E+06</totfact>
</mgrwt>
</event>
<event>
 4    1  0.9374408E+003  0.2135189E+02  0.7546771E-02  0.1719708E+00
         21   -1    0    0  502  501  0.00000000000E+00  0.00000000000E+00  0.71646273780E+01  0.71646273780E+01  0.00000000000E+00 0.  1.
         21   -1    0    0  504  502 -0.00000000000E+00 -0.00000000000E+00 -0.11575254757E+03  0.11575254757E+03  0.00000000000E+00 0.  1.
         21    1    1    2  503  501 -0.16845388219E+02 -0.13120061141E+02 -0.13053858912E+02  0.25026113184E+02  0.00000000000E+00 0. -1.
         21    1    1    2  504  503  0.16845388219E+02  0.13120061141E+02 -0.95534061282E+02  0.97891061766E+02  0.00000000000E+00 0. -1.
<mgrwt>
<rscale>  2 0.21351888E+02</rscale>
<asrwt>0</asrwt>
<pdfrwt beam="1">  1       21 0.11022504E-02 0.21351888E+02</pdfrwt>
<pdfrwt beam="2">  1       21 0.17808083E-01 0.21351888E+02</pdfrwt>
<totfact> 0.63812128E+07</totfact>
</mgrwt>
</event>
<event>
 4    1  0.9374408E+003  0.2477113E+02  0.7546771E-02  0.1664311E+00
         21   -1    0    0  504  501  0.00000000000E+00  0.00000000000E+00  0.91048475385E+01  0.91048475385E+01  0.00000000000E+00 0.  1.
         21   -1    0    0  501  502 -0.00000000000E+00 -0.00000000000E+00 -0.11431751431E+03  0.11431751431E+03  0.00000000000E+00 0.  1.
         21    1    1    2  503  502  0.21840215766E+02  0.11688195224E+02 -0.92143390851E+02  0.95414953806E+02  0.00000000000E+00 0. -1.
         21    1    1    2  504  503 -0.21840215766E+02 -0.11688195224E+02 -0.13069275925E+02  0.28007408047E+02  0.00000000000E+00 0. -1.
<mgrwt>
<rscale>  2 0.24771131E+02</rscale>
<asrwt>0</asrwt>
<pdfrwt beam="1">  1       21 0.14007457E-02 0.24771131E+02</pdfrwt>
<pdfrwt beam="2">  1       21 0.17587311E-01 0.24771131E+02</pdfrwt>
<totfact> 0.47145769E+07</totfact>
</mgrwt>
</event>
<event>
 4    1  0.9374408E+003  0.3884008E+02  0.7546771E-02  0.1516925E+00
         21   -1    0    0  502  501  0.00000000000E+00  0.00000000000E+00  0.87930270456E+02  0.87930270456E+02  0.00000000000E+00 0.  1.
         21   -1    0    0  503  502 -0.00000000000E+00 -0.00000000000E+00 -0.22632052782E+02  0.22632052782E+02  0.00000000000E+00 0.  1.
         21    1    1    2  503  504  0.76679793279E+01  0.38075638534E+02  0.54571945399E+01  0.39221590088E+02  0.00000000000E+00 0.  1.
         21    1    1    2  504  501 -0.76679793279E+01 -0.38075638534E+02  0.59841023134E+02  0.71340733151E+02  0.00000000000E+00 0.  1.
<mgrwt>
<rscale>  2 0.38840084E+02</rscale>
<asrwt>0</asrwt>
<pdfrwt beam="1">  1       21 0.13527734E-01 0.38840084E+02</pdfrwt>
<pdfrwt beam="2">  1       21 0.34818543E-02 0.38840084E+02</pdfrwt>
<totfact> 0.19645148E+07</totfact>
</mgrwt>
</event>
<event>
 4    1  0.9374408E+003  0.3826485E+02  0.7546771E-02  0.1521383E+00
         21   -1    0    0  504  501  0.00000000000E+00  0.00000000000E+00  0.42401357132E+01  0.42401357132E+01  0.00000000000E+00 0.  1.
         21   -1    0    0  501  502 -0.00000000000E+00 -0.00000000000E+00 -0.46066139782E+03  0.46066139782E+03  0.00000000000E+00 0.  1.
         21    1    1    2  503  502 -0.26282704771E+02  0.27810393987E+02 -0.34452541908E+03  0.34664385611E+03  0.00000000000E+00 0. -1.
         21    1    1    2  504  503  0.26282704771E+02 -0.27810393987E+02 -0.11189584303E+03  0.11825767743E+03  0.00000000000E+00 0. -1.
<mgrwt>
<rscale>  2 0.38264848E+02</rscale>
<asrwt>0</asrwt>
<pdfrwt beam="1">  1       21 0.65232851E-03 0.38264848E+02</pdfrwt>
<pdfrwt beam="2">  1       21 0.70870991E-01 0.38264848E+02</pdfrwt>
<totfact> 0.11672060E+07</totfact>
</mgrwt>
</event>
<event>
 4    1  0.9374408E+003  0.2964061E+02  0.7546771E-02  0.1602096E+00
         21   -1    0    0  502  501  0.00000000000E+00  0.00000000000E+00  0.11084542872E+01  0.11084542872E+01  0.00000000000E+00 0.  1.
         21   -1    0    0  503  502 -0.00000000000E+00 -0.00000000000E+00 -0.94194395373E+03  0.94194395373E+03  0.00000000000E+00 0.  1.
         21    1    1    2  503  504  0.11159194906E+02  0.27459755748E+02 -0.65816804649E+03  0.65883514117E+03  0.00000000000E+00 0. -1.
         21    1    1    2  504  501 -0.11159194906E+02 -0.27459755748E+02 -0.28266745295E+03  0.28421726685E+03  0.00000000000E+00 0. -1.
<mgrwt>
<rscale>  2 0.29640611E+02</rscale>
<asrwt>0</asrwt>
<pdfrwt beam="1">  1       21 0.17053097E-03 0.29640611E+02</pdfrwt>
<pdfrwt beam="2">  1       21 0.14491485E+00 0.29640611E+02</pdfrwt>
<totfact> 0.16586103E+07</totfact>
</mgrwt>
</event>
<event>
 4    1  0.9374408E+003  0.3431515E+02  0.7546771E-02  0.1554768E+00
         21   -1    0    0  504  501  0.00000000000E+00  0.00000000000E+00  0.44311555529E+02  0.44311555529E+02  0.00000000000E+00 0.  1.
         21   -1    0    0  501  502 -0.00000000000E+00 -0.00000000000E+00 -0.33029160270E+02  0.33029160270E+02  0.00000000000E+00 0.  1.
         21    1    1    2  503  502  0.30661008437E+02  0.15408825631E+02  0.22736919454E+02  0.41164266688E+02  0.00000000000E+00 0.  1.
         21    1    1    2  504  503 -0.30661008437E+02 -0.15408825631E+02 -0.11454524195E+02  0.36176449110E+02  0.00000000000E+00 0.  1.
<mgrwt>
<rscale>  2 0.34315147E+02</rscale>
<asrwt>0</asrwt>
<pdfrwt beam="1">  1       21 0.68171624E-02 0.34315147E+02</pdfrwt>
<pdfrwt beam="2">  1       21 0.50814092E-02 0.34315147E+02</pdfrwt>
<totfact> 0.33131022E+07</totfact>
</mgrwt>
</event>
<event>
 4    1  0.9374408E+003  0.2451582E+02  0.7546771E-02  0.1668055E+00
         21   -1    0    0  503  501  0.00000000000E+00  0.00000000000E+00  0.10261955733E+02  0.10261955733E+02  0.00000000000E+00 0.  1.
         21   -1    0    0  501  502 -0.00000000000E+00 -0.00000000000E+00 -0.15102732114E+03  0.15102732114E+03  0.00000000000E+00 0.  1.
         21    1    1    2  503  504  0.14111683697E+02 -0.20047090470E+02 -0.13348166440E+03  0.13571433301E+03  0.00000000000E+00 0.  1.
         21    1    1    2  504  502 -0.14111683697E+02  0.20047090470E+02 -0.72837010007E+01  0.25574943858E+02  0.00000000000E+00 0.  1.
<mgrwt>
<rscale>  2 0.24515820E+02</rscale>
<asrwt>0</asrwt>
<pdfrwt beam="1">  1       21 0.15787624E-02 0.24515820E+02</pdfrwt>
<pdfrwt beam="2">  1       21 0.23234972E-01 0.24515820E+02</pdfrwt>
<totfact> 0.24066235E+07</totfact>
</mgrwt>
</event>
<event>
 4    1  0.9374408E+003  0.3853969E+02  0.7546771E-02  0.1519241E+00
         21   -1    0    0  502  501  0.00000000000E+00  0.00000000000E+00  0.65394659683E+03  0.65394659683E+03  0.00000000000E+00 0. -1.
         21   -1    0    0  503  502 -0.00000000000E+00 -0.00000000000E+00 -0.28822287231E+01  0.28822287231E+01  0.00000000000E+00 0. -1.
         21    1    1    2  503  504 -0.20951464656E+02  0.32347235707E+02  0.47673295566E+03  0.47828821702E+03  0.00000000000E+00 0.  1.
         21    1    1    2  504  501  0.20951464656E+02 -0.32347235707E+02  0.17433141245E+03  0.17854060853E+03  0.00000000000E+00 0.  1.
<mgrwt>
<rscale>  2 0.38539688E+02</rscale>
<asrwt>0</asrwt>
<pdfrwt beam="1">  1       21 0.10060705E+00 0.38539688E+02</pdfrwt>
<pdfrwt beam="2">  1       21 0.44342032E-03 0.38539688E+02</pdfrwt>
<totfact> 0.97667840E+06</totfact>
</mgrwt>
</event>
<event>
 4    1  0.9374408E+003  0.2833301E+02  0.7546771E-02  0.1617281E+00
         21   -1    0    0  504  501  0.00000000000E+00  0.00000000000E+00  0.54483864664E+03  0.54483864664E+03  0.00000000000E+00 0. -1.
         21   -1    0    0  501  502 -0.00000000000E+00 -0.00000000000E+00 -0.15795734552E+01  0.15795734552E+01  0.00000000000E+00 0. -1.
         21    1    1    2  503  502  0.12444629346E+02  0.25453695681E+02  0.34246572012E+03  0.34363575029E+03  0.00000000000E+00 0.  1.
         21    1    1    2  504  503 -0.12444629346E+02 -0.25453695681E+02  0.20079335307E+03  0.20278246981E+03  0.00000000000E+00 0.  1.
<mgrwt>
<rscale>  2 0.28333009E+02</rscale>
<asrwt>0</asrwt>
<pdfrwt beam="1">  1       21 0.83821180E-01 0.28333009E+02</pdfrwt>
<pdfrwt beam="2">  1       21 0.24301174E-03 0.28333009E+02</pdfrwt>
<totfact> 0.33800282E+07</totfact>
</mgrwt>
</event>
<event>
 4    1  0.9374408E+003  0.2164898E+02  0.7546771E-02  0.1714394E+00
         21   -1    0    0  502  501  0.00000000000E+00  0.00000000000E+00  0.37515333423E+01  0.37515333423E+01  0.00000000000E+00 0. -1.
         21   -1    0    0  504  502 -0.00000000000E+00 -0.00000000000E+00 -0.14014180528E+03  0.14014180528E+03  0.00000000000E+00 0. -1.
         21    1    1    2  503  501  0.32692628134E+01 -0.21400705053E+02 -0.44491210167E+02  0.49478743297E+02  0.00000000000E+00 0. -1.
         21    1    1    2  504  503 -0.32692628134E+01  0.21400705053E+02 -0.91899061771E+02  0.94414595325E+02  0.00000000000E+00 0. -1.
<mgrwt>
<rscale>  2 0.21648978E+02</rscale>
<asrwt>0</asrwt>
<pdfrwt beam="1">  1       21 0.57715904E-03 0.21648978E+02</pdfrwt>
<pdfrwt beam="2">  1       21 0.21560275E-01 0.21648978E+02</pdfrwt>
<totfact> 0.12045342E+08</totfact>
</mgrwt>
</event>
<event>
 4    1  0.9374408E+003  0.2297389E+02  0.7546771E-02  0.1691934E+00
         21   -1    0    0  503  501  0.00000000000E+00  0.00000000000E+00  0.72173811722E+01  0.72173811722E+01  0.00000000000E+00 0.  1.
         21   -1    0    0  501  502 -0.00000000000E+00 -0.00000000000E+00 -0.55855718760E+03  0.55855718760E+03  0.00000000000E+00 0.  1.
         21    1    1    2  503  504 -0.65884733626E+01 -0.22008897459E+02 -0.53938932787E+03  0.53987836275E+03  0.00000000000E+00 0. -1.
         21    1    1    2  504  502  0.65884733626E+01  0.22008897459E+02 -0.11950478564E+02  0.25896206026E+02  0.00000000000E+00 0. -1.
<mgrwt>
<rscale>  2 0.22973888E+02</rscale>
<asrwt>0</asrwt>
<pdfrwt beam="1">  1       21 0.11103662E-02 0.22973888E+02</pdfrwt>
<pdfrwt beam="2">  1       21 0.85931882E-01 0.22973888E+02</pdfrwt>
<totfact> 0.32630202E+06</totfact>
</mgrwt>
</event>
<event>
 4    1  0.9374408E+003  0.2819782E+02  0.7546771E-02  0.1618908E+00
         21   -1    0    0  502  501  0.00000000000E+00  0.00000000000E+00  0.24281181897E+02  0.24281181897E+02  0.00000000000E+00 0.  1.
         21   -1    0    0  503  502 -0.00000000000E+00 -0.00000000000E+00 -0.46186972201E+02  0.46186972201E+02  0.00000000000E+00 0.  1.
         21    1    1    2  503  504 -0.14533123310E+02  0.24164139848E+02  0.80541528697E+01  0.29325529939E+02  0.00000000000E+00 0. -1.
         21    1    1    2  504  501  0.14533123310E+02 -0.24164139848E+02 -0.29959943174E+02  0.41142624159E+02  0.00000000000E+00 0. -1.
<mgrwt>
<rscale>  2 0.28197825E+02</rscale>
<asrwt>0</asrwt>
<pdfrwt beam="1">  1       21 0.37355665E-02 0.28197825E+02</pdfrwt>
<pdfrwt beam="2">  1       21 0.71056878E-02 0.28197825E+02</pdfrwt>
<totfact> 0.48591647E+07</totfact>
</mgrwt>
</event>
<event>
 4    1  0.9374408E+003  0.2028734E+02  0.7546771E-02  0.1739674E+00
         21   -1    0    0  504  501  0.00000000000E+00  0.00000000000E+00  0.18497979978E+03  0.18497979978E+03  0.00000000000E+00 0.  1.
         21   -1    0    0  501  502 -0.00000000000E+00 -0.00000000000E+00 -0.26682071689E+01  0.26682071689E+01  0.00000000000E+00 0.  1.
         21    1    1    2  503  502  0.14486335271E+02 -0.14202890248E+02  0.52915758640E+02  0.56671452367E+02  0.00000000000E+00 0.  1.
         21    1    1    2  504  503 -0.14486335271E+02  0.14202890248E+02  0.12939583397E+03  0.13097655458E+03  0.00000000000E+00 0.  1.
<mgrwt>
<rscale>  2 0.20287336E+02</rscale>
<asrwt>0</asrwt>
<pdfrwt beam="1">  1       21 0.28458421E-01 0.20287336E+02</pdfrwt>
<pdfrwt beam="2">  1       21 0.41049356E-03 0.20287336E+02</pdfrwt>
<totfact> 0.11919133E+08</totfact>
</mgrwt>
</event>
<event>
 4    1  0.9374408E+003  0.2196174E+02  0.7546771E-02  0.1708915E+00
         21   -1    0    0  503  501  0.00000000000E+00  0.00000000000E+00  0.11328344310E+04  0.11328344310E+04  0.00000000000E+00 0. -1.
         21   -1    0    0  501  502 -0.00000000000E+00 -0.00000000000E+00 -0.64226919531E+00  0.64226919531E+00  0.00000000000E+00 0. -1.
         21    1    1    2  503  504  0.39583925694E+01  0.21602060884E+02  0.89514477765E+03  0.89541414488E+03  0.00000000000E+00 0. -1.
         21    1    1    2  504  502 -0.39583925694E+01 -0.21602060884E+02  0.23704738411E+03  0.23806255527E+03  0.00000000000E+00 0. -1.
<mgrwt>
<rscale>  2 0.21961737E+02</rscale>
<asrwt>0</asrwt>
<pdfrwt beam="1">  1       21 0.17428062E+00 0.21961737E+02</pdfrwt>
<pdfrwt beam="2">  1       21 0.98811552E-04 0.21961737E+02</pdfrwt>
<totfact> 0.22199109E+07</totfact>
</mgrwt>
</event>
<event>
 4    1  0.9374408E+003  0.2161684E+02  0.7546771E-02  0.1714964E+00
         21   -1    0    0  502  501  0.00000000000E+00  0.00000000000E+00  0.69159610586E+02  0.69159610586E+02  0.00000000000E+00 0. -1.
         21   -1    0    0  504  502 -0.00000000000E+00 -0.00000000000E+00 -0.69943905966E+02  0.69943905966E+02  0.00000000000E+00 0. -1.
         21    1    1    2  503  501 -0.32641533316E+01 -0.21368976746E+02 -0.66499215087E+02  0.69924484062E+02  0.00000000000E+00 0. -1.
         21    1    1    2  504  503  0.32641533316E+01  0.21368976746E+02  0.65714919707E+02  0.69179032490E+02  0.00000000000E+00 0. -1.
<mgrwt>
<rscale>  2 0.21616842E+02</rscale>
<asrwt>0</asrwt>
<pdfrwt beam="1">  1       21 0.10639940E-01 0.21616842E+02</pdfrwt>
<pdfrwt beam="2">  1       21 0.10760601E-01 0.21616842E+02</pdfrwt>
<totfact> 0.42873968E+06</totfact>
</mgrwt>
</event>
<event>
 4    1  0.9374408E+003  0.2656016E+02  0.7546771E-02  0.1639554E+00
         21   -1    0    0  503  501  0.00000000000E+00  0.00000000000E+00  0.39505789092E+03  0.39505789092E+03  0.00000000000E+00 0. -1.
         21   -1    0    0  501  502 -0.00000000000E+00 -0.00000000000E+00 -0.21336986655E+01  0.21336986655E+01  0.00000000000E+00 0. -1.
         21    1    1    2  503  504  0.21821545110E+02 -0.15141408463E+02  0.11625505366E+03  0.11925049091E+03  0.00000000000E+00 0.  1.
         21    1    1    2  504  502 -0.21821545110E+02  0.15141408463E+02  0.27666913860E+03  0.27794109868E+03  0.00000000000E+00 0.  1.
<mgrwt>
<rscale>  2 0.26560160E+02</rscale>
<asrwt>0</asrwt>
<pdfrwt beam="1">  1       21 0.60778079E-01 0.26560160E+02</pdfrwt>
<pdfrwt beam="2">  1       21 0.32826165E-03 0.26560160E+02</pdfrwt>
<totfact> 0.41856598E+07</totfact>
</mgrwt>
</event>
<event>
 4    1  0.9374408E+003  0.2060292E+02  0.7546771E-02  0.1733597E+00
         21   -1    0    0  502  501  0.00000000000E+00  0.00000000000E+00  0.20004644146E+03  0.20004644146E+03  0.00000000000E+00 0. -1.
         21   -1    0    0  504  502 -0.00000000000E+00 -0.00000000000E+00 -0.63741874834E+01  0.63741874834E+01  0.00000000000E+00 0. -1.
         21    1    1    2  503  501  0.20009919259E+02  0.49075009585E+01  0.18113495004E+03  0.18230290881E+03  0.00000000000E+00 0. -1.
         21    1    1    2  504  503 -0.20009919259E+02 -0.49075009585E+01  0.12537303934E+02  0.24117720131E+02  0.00000000000E+00 0. -1.
<mgrwt>
<rscale>  2 0.20602923E+02</rscale>
<asrwt>0</asrwt>
<pdfrwt beam="1">  1       21 0.30776371E-01 0.20602923E+02</pdfrwt>
<pdfrwt beam="2">  1       21 0.98064438E-03 0.20602923E+02</pdfrwt>
<totfact> 0.28683206E+07</totfact>
</mgrwt>
</event>
<event>
 4    1  0.9374408E+003  0.2113867E+02  0.7546771E-02  0.1723588E+00
         21   -1    0    0  504  501  0.00000000000E+00  0.00000000000E+00  0.12651689096E+01  0.12651689096E+01  0.00000000000E+00 0.  1.
         21   -1    0    0  501  502 -0.00000000000E+00 -0.00000000000E+00 -0.46895401516E+03  0.46895401516E+03  0.00000000000E+00 0.  1.
         21    1    1    2  503  502  0.20065939933E+02  0.66484298505E+01 -0.11703062427E+03  0.11892439019E+03  0.00000000000E+00 0.  1.
         21    1    1    2  504  503 -0.20065939933E+02 -0.66484298505E+01 -0.35065822198E+03  0.35129479388E+03  0.00000000000E+00 0.  1.
<mgrwt>
<rscale>  2 0.21138675E+02</rscale>
<asrwt>0</asrwt>
<pdfrwt beam="1">  1       21 0.19464145E-03 0.21138675E+02</pdfrwt>
<pdfrwt beam="2">  1       21 0.72146742E-01 0.21138675E+02</pdfrwt>
<totfact> 0.59947689E+07</totfact>
</mgrwt>
</event>
<event>
 4    1  0.9374408E+003  0.2108107E+02  0.7546771E-02  0.1724647E+00
         21   -1    0    0  504  501  0.00000000000E+00  0.00000000000E+00  0.11381842192E+03  0.11381842192E+03  0.00000000000E+00 0. -1.
         21   -1    0    0  501  502 -0.00000000000E+00 -0.00000000000E+00 -0.39352979662E+01  0.39352979662E+01  0.00000000000E+00 0. -1.
         21    1    1    2  503  502  0.19794268933E+01  0.20987934451E+02  0.49738583125E+02  0.54021645427E+02  0.00000000000E+00 0.  1.
         21    1    1    2  504  503 -0.19794268933E+01 -0.20987934451E+02  0.60144540826E+02  0.63732074456E+02  0.00000000000E+00 0.  1.
<mgrwt>
<rscale>  2 0.21081070E+02</rscale>
<asrwt>0</asrwt>
<pdfrwt beam="1">  1       21 0.17510524E-01 0.21081070E+02</pdfrwt>
<pdfrwt beam="2">  1       21 0.60543054E-03 0.21081070E+02</pdfrwt>
<totfact> 0.15976990E+08</totfact>
</mgrwt>
</event>
<event>
 4    1  0.9374408E+003  0.2796550E+02  0.7546771E-02  0.1621731E+00
         21   -1    0    0  504  501  0.00000000000E+00  0.00000000000E+00  0.26386176785E+02  0.26386176785E+02  0.00000000000E+00 0. -1.
         21   -1    0    0  501  502 -0.00000000000E+00 -0.00000000000E+00 -0.57695824260E+02  0.57695824260E+02  0.00000000000E+00 0. -1.
         21    1    1    2  503  502  0.25423053207E+02  0.11650653719E+02  0.13662027915E+02  0.31124273055E+02  0.00000000000E+00 0. -1.
         21    1    1    2  504  503 -0.25423053207E+02 -0.11650653719E+02 -0.44971675390E+02  0.52957727990E+02  0.00000000000E+00 0. -1.
<mgrwt>
<rscale>  2 0.27965503E+02</rscale>
<asrwt>0</asrwt>
<pdfrwt beam="1">  1       21 0.40594119E-02 0.27965503E+02</pdfrwt>
<pdfrwt beam="2">  1       21 0.88762805E-02 0.27965503E+02</pdfrwt>
<totfact> 0.29487846E+07</totfact>
</mgrwt>
</event>
<event>
 4    1  0.9374408E+003  0.2651999E+02  0.7546771E-02  0.1640083E+00
         21   -1    0    0  503  501  0.00000000000E+00  0.00000000000E+00  0.53537359002E+03  0.53537359002E+03  0.00000000000E+00 0.  1.
         21   -1    0    0  501  502 -0.00000000000E+00 -0.00000000000E+00 -0.27172057866E+01  0.27172057866E+01  0.00000000000E+00 0.  1.
         21    1    1    2  503  504  0.24573673646E+02 -0.99721724580E+01  0.72964701828E+02  0.77634769098E+02  0.00000000000E+00 0. -1.
         21    1    1    2  504  502 -0.24573673646E+02  0.99721724580E+01  0.45969168241E+03  0.46045602671E+03  0.00000000000E+00 0. -1.
<mgrwt>
<rscale>  2 0.26519986E+02</rscale>
<asrwt>0</asrwt>
<pdfrwt beam="1">  1       21 0.82365084E-01 0.26519986E+02</pdfrwt>
<pdfrwt beam="2">  1       21 0.41803209E-03 0.26519986E+02</pdfrwt>
<totfact> 0.15642102E+07</totfact>
</mgrwt>
</event>
<event>
 4    1  0.9374408E+003  0.2605503E+02  0.7546771E-02  0.1646295E+00
         21   -1    0    0  503  501  0.00000000000E+00  0.00000000000E+00  0.83195403116E+02  0.83195403116E+02  0.00000000000E+00 0. -1.
         21   -1    0    0  501  502 -0.00000000000E+00 -0.00000000000E+00 -0.27581329101E+02  0.27581329101E+02  0.00000000000E+00 0. -1.
         21    1    1    2  503  504  0.22715419169E+02 -0.12762229793E+02 -0.18671423866E+02  0.32054435675E+02  0.00000000000E+00 0.  1.
         21    1    1    2  504  502 -0.22715419169E+02  0.12762229793E+02  0.74285497880E+02  0.78722296541E+02  0.00000000000E+00 0.  1.
<mgrwt>
<rscale>  2 0.26055034E+02</rscale>
<asrwt>0</asrwt>
<pdfrwt beam="1">  1       21 0.12799293E-01 0.26055034E+02</pdfrwt>
<pdfrwt beam="2">  1       21 0.42432814E-02 0.26055034E+02</pdfrwt>
<totfact> 0.14691753E+07</totfact>
</mgrwt>
</event>
<event>
 4    1  0.9374408E+003  0.4834851E+02  0.7546771E-02  0.1454458E+00
         21   -1    0    0  503  501  0.00000000000E+00  0.00000000000E+00  0.92334036022E+02  0.92334036022E+02  0.00000000000E+00 0.  1.
         21   -1    0    0  501  502 -0.00000000000E+00 -0.00000000000E+00 -0.59416216844E+02  0.59416216844E+02  0.00000000000E+00 0.  1.
         21    1    1    2  503  504 -0.47576020949E+02  0.86081547586E+01 -0.41021794143E+02  0.63406353723E+02  0.00000000000E+00 0.  1.
         21    1    1    2  504  502  0.47576020949E+02 -0.86081547586E+01  0.73939613322E+02  0.88343899144E+02  0.00000000000E+00 0.  1.
<mgrwt>
<rscale>  2 0.48348507E+02</rscale>
<asrwt>0</asrwt>
<pdfrwt beam="1">  1       21 0.14205236E-01 0.48348507E+02</pdfrwt>
<pdfrwt beam="2">  1       21 0.91409565E-02 0.48348507E+02</pdfrwt>
<totfact> 0.38097712E+06</totfact>
</mgrwt>
</event>
<event>
 4    1  0.9374408E+003  0.2063563E+02  0.7546771E-02  0.1732975E+00
         21   -1    0    0  504  501  0.00000000000E+00  0.00000000000E+00  0.58876281967E+03  0.58876281967E+03  0.00000000000E+00 0. -1.
         21   -1    0    0  501  502 -0.00000000000E+00 -0.00000000000E+00 -0.17864297995E+01  0.17864297995E+01  0.00000000000E+00 0. -1.
         21    1    1    2  503  502 -0.19636815675E+02  0.63422996866E+01  0.65698421591E+02  0.68862993652E+02  0.00000000000E+00 0. -1.
         21    1    1    2  504  503  0.19636815675E+02 -0.63422996866E+01  0.52127796828E+03  0.52168625581E+03  0.00000000000E+00 0. -1.
<mgrwt>
<rscale>  2 0.20635632E+02</rscale>
<asrwt>0</asrwt>
<pdfrwt beam="1">  1       21 0.90578741E-01 0.20635632E+02</pdfrwt>
<pdfrwt beam="2">  1       21 0.27483582E-03 0.20635632E+02</pdfrwt>
<totfact> 0.22507716E+07</totfact>
</mgrwt>
</event>
<event>
 4    1  0.9374408E+003  0.2199080E+02  0.7546771E-02  0.1708411E+00
         21   -1    0    0  503  501  0.00000000000E+00  0.00000000000E+00  0.27308935685E+02  0.27308935685E+02  0.00000000000E+00 0. -1.
         21   -1    0    0  501  502 -0.00000000000E+00 -0.00000000000E+00 -0.27465554698E+02  0.27465554698E+02  0.00000000000E+00 0. -1.
         21    1    1    2  503  504  0.12922020862E+02  0.17793726473E+02  0.16245351860E+02  0.27340570258E+02  0.00000000000E+00 0.  1.
         21    1    1    2  504  502 -0.12922020862E+02 -0.17793726473E+02 -0.16401970873E+02  0.27433920126E+02  0.00000000000E+00 0.  1.
<mgrwt>
<rscale>  2 0.21990801E+02</rscale>
<asrwt>0</asrwt>
<pdfrwt beam="1">  1       21 0.42013747E-02 0.21990801E+02</pdfrwt>
<pdfrwt beam="2">  1       21 0.42254700E-02 0.21990801E+02</pdfrwt>
<totfact> 0.87150634E+07</totfact>
</mgrwt>
</event>
<event>
 4    1  0.9374408E+003  0.2903142E+02  0.7546771E-02  0.1609049E+00
         21   -1    0    0  504  501  0.00000000000E+00  0.00000000000E+00  0.23461883210E+02  0.23461883210E+02  0.00000000000E+00 0.  1.
         21   -1    0    0  501  502 -0.00000000000E+00 -0.00000000000E+00 -0.54018035455E+02  0.54018035455E+02  0.00000000000E+00 0.  1.
         21    1    1    2  503  502  0.25478353501E+02 -0.13916786122E+02 -0.37699766976E+02  0.47582516360E+02  0.00000000000E+00 0.  1.
         21    1    1    2  504  503 -0.25478353501E+02  0.13916786122E+02  0.71436147317E+01  0.29897402304E+02  0.00000000000E+00 0.  1.
<mgrwt>
<rscale>  2 0.29031421E+02</rscale>
<asrwt>0</asrwt>
<pdfrwt beam="1">  1       21 0.36095205E-02 0.29031421E+02</pdfrwt>
<pdfrwt beam="2">  1       21 0.83104669E-02 0.29031421E+02</pdfrwt>
<totfact> 0.39936261E+07</totfact>
</mgrwt>
</event>
<event>
 4    1  0.9374408E+003  0.2046484E+02  0.7546771E-02  0.1736239E+00
         21   -1    0    0  502  501  0.00000000000E+00  0.00000000000E+00  0.12914789097E+03  0.12914789097E+03  0.00000000000E+00 0.  1.
         21   -1    0    0  504  502 -0.00000000000E+00 -0.00000000000E+00 -0.53012655496E+01  0.53012655496E+01  0.00000000000E+00 0.  1.
         21    1    1    2  503  501 -0.11568435731E+02 -0.16881383669E+02  0.10381257623E+03  0.10581049477E+03  0.00000000000E+00 0.  1.
         21    1    1    2  504  503  0.11568435731E+02  0.16881383669E+02  0.20034049188E+02  0.28638661748E+02  0.00000000000E+00 0.  1.
<mgrwt>
<rscale>  2 0.20464844E+02</rscale>
<asrwt>0</asrwt>
<pdfrwt beam="1">  1       21 0.19868904E-01 0.20464844E+02</pdfrwt>
<pdfrwt beam="2">  1       21 0.81557941E-03 0.20464844E+02</pdfrwt>
<totfact> 0.81889226E+07</totfact>
</mgrwt>
</event>
<event>
 4    1  0.9374408E+003  0.4154347E+02  0.7546771E-02  0.1497151E+00
         21   -1    0    0  502  501  0.00000000000E+00  0.00000000000E+00  0.34284423039E+03  0.34284423039E+03  0.00000000000E+00 0.  1.
         21   -1    0    0  504  502 -0.00000000000E+00 -0.00000000000E+00 -0.72191362487E+01  0.72191362487E+01  0.00000000000E+00 0.  1.
         21    1    1    2  503  501  0.41420166962E+02  0.31984309173E+01  0.71514289055E+02  0.82705221906E+02  0.00000000000E+00 0. -1.
         21    1    1    2  504  503 -0.41420166962E+02 -0.31984309173E+01  0.26411080509E+03  0.26735814473E+03  0.00000000000E+00 0. -1.
<mgrwt>
<rscale>  2 0.41543474E+02</rscale>
<asrwt>0</asrwt>
<pdfrwt beam="1">  1       21 0.52745254E-01 0.41543474E+02</pdfrwt>
<pdfrwt beam="2">  1       21 0.11106366E-02 0.41543474E+02</pdfrwt>
<totfact> 0.96149533E+06</totfact>
</mgrwt>
</event>
<event>
 4    1  0.9374408E+003  0.2093063E+02  0.7546771E-02  0.1727431E+00
         21   -1    0    0  503  501  0.00000000000E+00  0.00000000000E+00  0.68394883587E+03  0.68394883587E+03  0.00000000000E+00 0. -1.
         21   -1    0    0  501  502 -0.00000000000E+00 -0.00000000000E+00 -0.78480166602E+00  0.78480166602E+00  0.00000000000E+00 0. -1.
         21    1    1    2  503  504  0.20540420867E+02  0.40227282760E+01  0.48837286068E+03  0.48882117618E+03  0.00000000000E+00 0. -1.
         21    1    1    2  504  502 -0.20540420867E+02 -0.40227282760E+01  0.19479117353E+03  0.19591246136E+03  0.00000000000E+00 0. -1.
<mgrwt>
<rscale>  2 0.20930629E+02</rscale>
<asrwt>0</asrwt>
<pdfrwt beam="1">  1       21 0.10522242E+00 0.20930629E+02</pdfrwt>
<pdfrwt beam="2">  1       21 0.12073926E-03 0.20930629E+02</pdfrwt>
<totfact> 0.53172823E+07</totfact>
</mgrwt>
</event>
<event>
 4    1  0.9374408E+003  0.2745726E+02  0.7546771E-02  0.1628025E+00
         21   -1    0    0  503  501  0.00000000000E+00  0.00000000000E+00  0.99097851995E+00  0.99097851995E+00  0.00000000000E+00 0.  1.
         21   -1    0    0  501  502 -0.00000000000E+00 -0.00000000000E+00 -0.10541378833E+04  0.10541378833E+04  0.00000000000E+00 0.  1.
         21    1    1    2  503  504  0.27291396935E+02  0.30134049911E+01 -0.24825795375E+03  0.24977172089E+03  0.00000000000E+00 0.  1.
         21    1    1    2  504  502 -0.27291396935E+02 -0.30134049911E+01 -0.80488895103E+03  0.80535714093E+03  0.00000000000E+00 0.  1.
<mgrwt>
<rscale>  2 0.27457257E+02</rscale>
<asrwt>0</asrwt>
<pdfrwt beam="1">  1       21 0.15245763E-03 0.27457257E+02</pdfrwt>
<pdfrwt beam="2">  1       21 0.16217570E+00 0.27457257E+02</pdfrwt>
<totfact> 0.14710003E+07</totfact>
</mgrwt>
</event>
<event>
 4    1  0.9374408E+003  0.3742693E+02  0.7546771E-02  0.1528048E+00
         21   -1    0    0  504  501  0.00000000000E+00  0.00000000000E+00  0.24655637809E+03  0.24655637809E+03  0.00000000000E+00 0. -1.
         21   -1    0    0  501  502 -0.00000000000E+00 -0.00000000000E+00 -0.97031879218E+01  0.97031879218E+01  0.00000000000E+00 0. -1.
         21    1    1    2  503  502 -0.24924135928E+02  0.27920649165E+02  0.35935952456E+02  0.51886104889E+02  0.00000000000E+00 0.  1.
         21    1    1    2  504  503  0.24924135928E+02 -0.27920649165E+02  0.20091723771E+03  0.20437346112E+03  0.00000000000E+00 0.  1.
<mgrwt>
<rscale>  2 0.37426932E+02</rscale>
<asrwt>0</asrwt>
<pdfrwt beam="1">  1       21 0.37931746E-01 0.37426932E+02</pdfrwt>
<pdfrwt beam="2">  1       21 0.14927983E-02 0.37426932E+02</pdfrwt>
<totfact> 0.11461975E+07</totfact>
</mgrwt>
</event>
<event>
 4    1  0.9374408E+003  0.2392750E+02  0.7546771E-02  0.1676902E+00
         21   -1    0    0  502  501  0.00000000000E+00  0.00000000000E+00  0.83146095219E+01  0.83146095219E+01  0.00000000000E+00 0. -1.
         21   -1    0    0  504  502 -0.00000000000E+00 -0.00000000000E+00 -0.14807925023E+03  0.14807925023E+03  0.00000000000E+00 0. -1.
         21    1    1    2  503  501  0.41253420682E+01  0.23569191584E+02 -0.12686518685E+02  0.27082706575E+02  0.00000000000E+00 0.  1.
         21    1    1    2  504  503 -0.41253420682E+01 -0.23569191584E+02 -0.12707812202E+03  0.12931115317E+03  0.00000000000E+00 0.  1.
<mgrwt>
<rscale>  2 0.23927500E+02</rscale>
<asrwt>0</asrwt>
<pdfrwt beam="1">  1       21 0.12791708E-02 0.23927500E+02</pdfrwt>
<pdfrwt beam="2">  1       21 0.22781422E-01 0.23927500E+02</pdfrwt>
<totfact> 0.34130798E+07</totfact>
</mgrwt>
</event>
<event>
 4    1  0.9374408E+003  0.2148574E+02  0.7546771E-02  0.1717301E+00
         21   -1    0    0  502  501  0.00000000000E+00  0.00000000000E+00  0.15513549019E+01  0.15513549019E+01  0.00000000000E+00 0. -1.
         21   -1    0    0  504  502 -0.00000000000E+00 -0.00000000000E+00 -0.10234912555E+04  0.10234912555E+04  0.00000000000E+00 0. -1.
         21    1    1    2  503  501 -0.19415988604E+02 -0.92008888728E+01 -0.79337034983E+02  0.82194903063E+02  0.00000000000E+00 0. -1.
         21    1    1    2  504  503  0.19415988604E+02  0.92008888728E+01 -0.94260286559E+03  0.94284770732E+03  0.00000000000E+00 0. -1.
<mgrwt>
<rscale>  2 0.21485739E+02</rscale>
<asrwt>0</asrwt>
<pdfrwt beam="1">  1       21 0.23866883E-03 0.21485739E+02</pdfrwt>
<pdfrwt beam="2">  1       21 0.15746096E+00 0.21485739E+02</pdfrwt>
<totfact> 0.79919468E+06</totfact>
</mgrwt>
</event>
<event>
 4    1  0.9374408E+003  0.2181262E+02  0.7546771E-02  0.1711513E+00
         21   -1    0    0  502  501  0.00000000000E+00  0.00000000000E+00  0.14535244435E+02  0.14535244435E+02  0.00000000000E+00 0. -1.
         21   -1    0    0  504  502 -0.00000000000E+00 -0.00000000000E+00 -0.43312729035E+02  0.43312729035E+02  0.00000000000E+00 0. -1.
         21    1    1    2  503  501  0.19640257383E+02 -0.94894922662E+01 -0.94000005618E-01  0.21812817552E+02  0.00000000000E+00 0. -1.
         21    1    1    2  504  503 -0.19640257383E+02  0.94894922662E+01 -0.28683484595E+02  0.36035155918E+02  0.00000000000E+00 0. -1.
<mgrwt>
<rscale>  2 0.21812615E+02</rscale>
<asrwt>0</asrwt>
<pdfrwt beam="1">  1       21 0.22361915E-02 0.21812615E+02</pdfrwt>
<pdfrwt beam="2">  1       21 0.66634967E-02 0.21812615E+02</pdfrwt>
<totfact> 0.11223551E+08</totfact>
</mgrwt>
</event>
<event>
 4    1  0.9374408E+003  0.2327917E+02  0.7546771E-02  0.1687024E+00
         21   -1    0    0  504  501  0.00000000000E+00  0.00000000000E+00  0.27429804697E+02  0.27429804697E+02  0.00000000000E+00 0.  1.
         21   -1    0    0  501  502 -0.00000000000E+00 -0.00000000000E+00 -0.33726614954E+02  0.33726614954E+02  0.00000000000E+00 0.  1.
         21    1    1    2  503  502 -0.22949271228E+02  0.39052001852E+01  0.16531551546E+02  0.28551914732E+02  0.00000000000E+00 0. -1.
         21    1    1    2  504  503  0.22949271228E+02 -0.39052001852E+01 -0.22828361804E+02  0.32604504919E+02  0.00000000000E+00 0. -1.
<mgrwt>
<rscale>  2 0.23279167E+02</rscale>
<asrwt>0</asrwt>
<pdfrwt beam="1">  1       21 0.42199699E-02 0.23279167E+02</pdfrwt>
<pdfrwt beam="2">  1       21 0.51887100E-02 0.23279167E+02</pdfrwt>
<totfact> 0.63483485E+07</totfact>
</mgrwt>
</event>
<event>
 4    1  0.9374408E+003  0.3289344E+02  0.7546771E-02  0.1568145E+00
         21   -1    0    0  503  501  0.00000000000E+00  0.00000000000E+00  0.38285993741E+01  0.38285993741E+01  0.00000000000E+00 0.  1.
         21   -1    0    0  501  502 -0.00000000000E+00 -0.00000000000E+00 -0.34249057136E+03  0.34249057136E+03  0.00000000000E+00 0.  1.
         21    1    1    2  503  504 -0.12136661944E+02 -0.30572529962E+02 -0.24173894944E+03  0.24396659163E+03  0.00000000000E+00 0.  1.
         21    1    1    2  504  502  0.12136661944E+02  0.30572529962E+02 -0.96923022545E+02  0.10235257911E+03  0.00000000000E+00 0.  1.
<mgrwt>
<rscale>  2 0.32893436E+02</rscale>
<asrwt>0</asrwt>
<pdfrwt beam="1">  1       21 0.58901509E-03 0.32893436E+02</pdfrwt>
<pdfrwt beam="2">  1       21 0.52690875E-01 0.32893436E+02</pdfrwt>
<totfact> 0.24372412E+07</totfact>
</mgrwt>
</event>
<event>
 4    1  0.9374408E+003  0.2478083E+02  0.7546771E-02  0.1664170E+00
         21   -1    0    0  502  501  0.00000000000E+00  0.00000000000E+00  0.14744181411E+01  0.14744181411E+01  0.00000000000E+00 0.  1.
         21   -1    0    0  503  502 -0.00000000000E+00 -0.00000000000E+00 -0.47307104842E+03  0.47307104842E+03  0.00000000000E+00 0.  1.
         21    1    1    2  503  504 -0.15480258294E+02  0.19350741145E+02 -0.31785165780E+03  0.31881619461E+03  0.00000000000E+00 0.  1.
         21    1    1    2  504  501  0.15480258294E+02 -0.19350741145E+02 -0.15374497248E+03  0.15572927195E+03  0.00000000000E+00 0.  1.
<mgrwt>
<rscale>  2 0.24780831E+02</rscale>
<asrwt>0</asrwt>
<pdfrwt beam="1">  1       21 0.22683366E-03 0.24780831E+02</pdfrwt>
<pdfrwt beam="2">  1       21 0.72780130E-01 0.24780831E+02</pdfrwt>
<totfact> 0.48953695E+07</totfact>
</mgrwt>
</event>
<event>
 4    1  0.9374408E+003  0.2097708E+02  0.7546771E-02  0.1726568E+00
         21   -1    0    0  502  501  0.00000000000E+00  0.00000000000E+00  0.85072895647E+02  0.85072895647E+02  0.00000000000E+00 0. -1.
         21   -1    0    0  503  502 -0.00000000000E+00 -0.00000000000E+00 -0.73952247735E+01  0.73952247735E+01  0.00000000000E+00 0. -1.
         21    1    1    2  503  504  0.42819044744E+00 -0.20972706307E+02  0.64186109007E+02  0.67526989762E+02  0.00000000000E+00 0.  1.
         21    1    1    2  504  501 -0.42819044744E+00  0.20972706307E+02  0.13491561867E+02  0.24941130658E+02  0.00000000000E+00 0.  1.
<mgrwt>
<rscale>  2 0.20977077E+02</rscale>
<asrwt>0</asrwt>
<pdfrwt beam="1">  1       21 0.13088137E-01 0.20977077E+02</pdfrwt>
<pdfrwt beam="2">  1       21 0.11377270E-02 0.20977077E+02</pdfrwt>
<totfact> 0.10217451E+08</totfact>
</mgrwt>
</event>
<event>
 4    1  0.9374408E+003  0.2815921E+02  0.7546771E-02  0.1619375E+00
         21   -1    0    0  502  501  0.00000000000E+00  0.00000000000E+00  0.28385011190E+02  0.28385011190E+02  0.00000000000E+00 0.  1.
         21   -1    0    0  504  502 -0.00000000000E+00 -0.00000000000E+00 -0.54888164779E+02  0.54888164779E+02  0.00000000000E+00 0.  1.
         21    1    1    2  503  501 -0.89310251068E+00  0.28145040014E+02  0.15925317731E+02  0.32350527883E+02  0.00000000000E+00 0. -1.
         21    1    1    2  504  503  0.89310251068E+00 -0.28145040014E+02 -0.42428471320E+02  0.50922648086E+02  0.00000000000E+00 0. -1.
<mgrwt>
<rscale>  2 0.28159206E+02</rscale>
<asrwt>0</asrwt>
<pdfrwt beam="1">  1       21 0.43669249E-02 0.28159206E+02</pdfrwt>
<pdfrwt beam="2">  1       21 0.84443329E-02 0.28159206E+02</pdfrwt>
<totfact> 0.28550543E+07</totfact>
</mgrwt>
</event>
<event>
 4    1  0.9374408E+003  0.2516872E+02  0.7546771E-02  0.1658590E+00
         21   -1    0    0  503  501  0.00000000000E+00  0.00000000000E+00  0.18386544746E+01  0.18386544746E+01  0.00000000000E+00 0. -1.
         21   -1    0    0  501  502 -0.00000000000E+00 -0.00000000000E+00 -0.43693154701E+03  0.43693154701E+03  0.00000000000E+00 0. -1.
         21    1    1    2  503  504 -0.81088618822E+00  0.25155658784E+02 -0.31843662588E+03  0.31942972530E+03  0.00000000000E+00 0. -1.
         21    1    1    2  504  502  0.81088618822E+00 -0.25155658784E+02 -0.11665626666E+03  0.11934047618E+03  0.00000000000E+00 0. -1.
<mgrwt>
<rscale>  2 0.25168725E+02</rscale>
<asrwt>0</asrwt>
<pdfrwt beam="1">  1       21 0.28287006E-03 0.25168725E+02</pdfrwt>
<pdfrwt beam="2">  1       21 0.67220204E-01 0.25168725E+02</pdfrwt>
<totfact> 0.41944355E+07</totfact>
</mgrwt>
</event>
<event>
 4    1  0.9374408E+003  0.2339677E+02  0.7546771E-02  0.1685158E+00
         21   -1    0    0  502  501  0.00000000000E+00  0.00000000000E+00  0.20801640384E+01  0.20801640384E+01  0.00000000000E+00 0. -1.
         21   -1    0    0  503  502 -0.00000000000E+00 -0.00000000000E+00 -0.29165362729E+03  0.29165362729E+03  0.00000000000E+00 0. -1.
         21    1    1    2  503  504  0.23116366602E+02 -0.36114511936E+01 -0.98878593677E+02  0.10160898224E+03  0.00000000000E+00 0.  1.
         21    1    1    2  504  501 -0.23116366602E+02  0.36114511936E+01 -0.19069486958E+03  0.19212480909E+03  0.00000000000E+00 0.  1.
<mgrwt>
<rscale>  2 0.23396773E+02</rscale>
<asrwt>0</asrwt>
<pdfrwt beam="1">  1       21 0.32002521E-03 0.23396773E+02</pdfrwt>
<pdfrwt beam="2">  1       21 0.44869792E-01 0.23396773E+02</pdfrwt>
<totfact> 0.76602244E+07</totfact>
</mgrwt>
</event>
<event>
 4    1  0.9374408E+003  0.2580980E+02  0.7546771E-02  0.1649636E+00
         21   -1    0    0  504  501  0.00000000000E+00  0.00000000000E+00  0.59254422563E+02  0.59254422563E+02  0.00000000000E+00 0. -1.
         21   -1    0    0  501  502 -0.00000000000E+00 -0.00000000000E+00 -0.57302198944E+02  0.57302198944E+02  0.00000000000E+00 0. -1.
         21    1    1    2  503  502  0.97023016099E+01  0.23916750489E+02 -0.51273567281E+02  0.57403173363E+02  0.00000000000E+00 0.  1.
         21    1    1    2  504  503 -0.97023016099E+01 -0.23916750489E+02  0.53225790899E+02  0.59153448144E+02  0.00000000000E+00 0.  1.
<mgrwt>
<rscale>  2 0.25809797E+02</rscale>
<asrwt>0</asrwt>
<pdfrwt beam="1">  1       21 0.91160651E-02 0.25809797E+02</pdfrwt>
<pdfrwt beam="2">  1       21 0.88157229E-02 0.25809797E+02</pdfrwt>
<totfact> 0.79304587E+06</totfact>
</mgrwt>
</event>
<event>
 4    1  0.9374408E+003  0.2545711E+02  0.7546771E-02  0.1654522E+00
         21   -1    0    0  503  501  0.00000000000E+00  0.00000000000E+00  0.27680083802E+01  0.27680083802E+01  0.00000000000E+00 0. -1.
         21   -1    0    0  501  502 -0.00000000000E+00 -0.00000000000E+00 -0.86396636156E+03  0.86396636156E+03  0.00000000000E+00 0. -1.
         21    1    1    2  503  504  0.24768117269E+02  0.58825869330E+01 -0.60581361534E+02  0.65712752395E+02  0.00000000000E+00 0.  1.
         21    1    1    2  504  502 -0.24768117269E+02 -0.58825869330E+01 -0.80061699165E+03  0.80102161755E+03  0.00000000000E+00 0.  1.
<mgrwt>
<rscale>  2 0.25457110E+02</rscale>
<asrwt>0</asrwt>
<pdfrwt beam="1">  1       21 0.42584730E-03 0.25457110E+02</pdfrwt>
<pdfrwt beam="2">  1       21 0.13291795E+00 0.25457110E+02</pdfrwt>
<totfact> 0.52301712E+06</totfact>
</mgrwt>
</event>
<event>
 4    1  0.9374408E+003  0.2496854E+02  0.7546771E-02  0.1661454E+00
         21   -1    0    0  502  501  0.00000000000E+00  0.00000000000E+00  0.10676504616E+02  0.10676504616E+02  0.00000000000E+00 0.  1.
         21   -1    0    0  503  502 -0.00000000000E+00 -0.00000000000E+00 -0.65326139913E+02  0.65326139913E+02  0.00000000000E+00 0.  1.
         21    1    1    2  503  504  0.11920126174E+02 -0.21939425696E+02 -0.14944385160E+02  0.29099183076E+02  0.00000000000E+00 0.  1.
         21    1    1    2  504  501 -0.11920126174E+02  0.21939425696E+02 -0.39705250136E+02  0.46903461453E+02  0.00000000000E+00 0.  1.
<mgrwt>
<rscale>  2 0.24968536E+02</rscale>
<asrwt>0</asrwt>
<pdfrwt beam="1">  1       21 0.16425392E-02 0.24968536E+02</pdfrwt>
<pdfrwt beam="2">  1       21 0.10050175E-01 0.24968536E+02</pdfrwt>
<totfact> 0.95582792E+07</totfact>
</mgrwt>
</event>
<event>
 4    1  0.9374408E+003  0.3808768E+02  0.7546771E-02  0.1522775E+00
         21   -1    0    0  502  501  0.00000000000E+00  0.00000000000E+00  0.95100853215E+01  0.95100853215E+01  0.00000000000E+00 0. -1.
         21   -1    0    0  504  502 -0.00000000000E+00 -0.00000000000E+00 -0.21757699624E+03  0.21757699624E+03  0.00000000000E+00 0. -1.
         21    1    1    2  503  501 -0.30265343749E+02 -0.23123160860E+02 -0.41955834614E+02  0.56665365600E+02  0.00000000000E+00 0.  1.
         21    1    1    2  504  503  0.30265343749E+02  0.23123160860E+02 -0.16611107630E+03  0.17042171596E+03  0.00000000000E+00 0.  1.
<mgrwt>
<rscale>  2 0.38087683E+02</rscale>
<asrwt>0</asrwt>
<pdfrwt beam="1">  1       21 0.14630902E-02 0.38087683E+02</pdfrwt>
<pdfrwt beam="2">  1       21 0.33473381E-01 0.38087683E+02</pdfrwt>
<totfact> 0.15019403E+07</totfact>
</mgrwt>
</event>
<event>
 4    1  0.9374408E+003  0.2633838E+02  0.7546771E-02  0.1642490E+00
         21   -1    0    0  504  501  0.00000000000E+00  0.00000000000E+00  0.82515668587E+02  0.82515668587E+02  0.00000000000E+00 0. -1.
         21   -1    0    0  501  502 -0.00000000000E+00 -0.00000000000E+00 -0.12045685130E+02  0.12045685130E+02  0.00000000000E+00 0. -1.
         21    1    1    2  503  502 -0.17903162920E+02 -0.19318046509E+02  0.61220995175E+02  0.66646233304E+02  0.00000000000E+00 0.  1.
         21    1    1    2  504  503  0.17903162920E+02  0.19318046509E+02  0.92489882822E+01  0.27915120414E+02  0.00000000000E+00 0.  1.
<mgrwt>
<rscale>  2 0.26338378E+02</rscale>
<asrwt>0</asrwt>
<pdfrwt beam="1">  1       21 0.12694718E-01 0.26338378E+02</pdfrwt>
<pdfrwt beam="2">  1       21 0.18531824E-02 0.26338378E+02</pdfrwt>
<totfact> 0.54434194E+07</totfact>
</mgrwt>
</event>
<event>
 4    1  0.9374408E+003  0.2186680E+02  0.7546771E-02  0.1710566E+00
         21   -1    0    0  503  501  0.00000000000E+00  0.00000000000E+00  0.59053419516E+01  0.59053419516E+01  0.00000000000E+00 0. -1.
         21   -1    0    0  501  502 -0.00000000000E+00 -0.00000000000E+00 -0.11304310286E+03  0.11304310286E+03  0.00000000000E+00 0. -1.
         21    1    1    2  503  504  0.48291581623E+01  0.21326891016E+02 -0.85248174405E+02  0.88008001275E+02  0.00000000000E+00 0.  1.
         21    1    1    2  504  502 -0.48291581623E+01 -0.21326891016E+02 -0.21889586503E+02  0.30940443537E+02  0.00000000000E+00 0.  1.
<mgrwt>
<rscale>  2 0.21866802E+02</rscale>
<asrwt>0</asrwt>
<pdfrwt beam="1">  1       21 0.90851410E-03 0.21866802E+02</pdfrwt>
<pdfrwt beam="2">  1       21 0.17391248E-01 0.21866802E+02</pdfrwt>
<totfact> 0.89376855E+07</totfact>
</mgrwt>
</event>
<event>
 4    1  0.9374408E+003  0.2541739E+02  0.7546771E-02  0.1655078E+00
         21   -1    0    0  502  501  0.00000000000E+00  0.00000000000E+00  0.50680438978E+02  0.50680438978E+02  0.00000000000E+00 0. -1.
         21   -1    0    0  504  502 -0.00000000000E+00 -0.00000000000E+00 -0.60024277324E+02  0.60024277324E+02  0.00000000000E+00 0. -1.
         21    1    1    2  503  501  0.23307945272E+02 -0.10138218964E+02 -0.53796295778E+02  0.59498615413E+02  0.00000000000E+00 0. -1.
         21    1    1    2  504  503 -0.23307945272E+02  0.10138218964E+02  0.44452457432E+02  0.51206100889E+02  0.00000000000E+00 0. -1.
<mgrwt>
<rscale>  2 0.25417392E+02</rscale>
<asrwt>0</asrwt>
<pdfrwt beam="1">  1       21 0.77969906E-02 0.25417392E+02</pdfrwt>
<pdfrwt beam="2">  1       21 0.92345042E-02 0.25417392E+02</pdfrwt>
<totfact> 0.94727943E+06</totfact>
</mgrwt>
</event>
<event>
 4    1  0.9374408E+003  0.2401629E+02  0.7546771E-02  0.1675547E+00
         21   -1    0    0  504  501  0.00000000000E+00  0.00000000000E+00  0.44005763856E+02  0.44005763856E+02  0.00000000000E+00 0. -1.
         21   -1    0    0  501  502 -0.00000000000E+00 -0.00000000000E+00 -0.13577940675E+02  0.13577940675E+02  0.00000000000E+00 0. -1.
         21    1    1    2  503  502  0.12234699304E+02 -0.20666259646E+02  0.98516210888E+01  0.25958362678E+02  0.00000000000E+00 0. -1.
         21    1    1    2  504  503 -0.12234699304E+02  0.20666259646E+02  0.20576202091E+02  0.31625341853E+02  0.00000000000E+00 0. -1.
<mgrwt>
<rscale>  2 0.24016289E+02</rscale>
<asrwt>0</asrwt>
<pdfrwt beam="1">  1       21 0.67701175E-02 0.24016289E+02</pdfrwt>
<pdfrwt beam="2">  1       21 0.20889140E-02 0.24016289E+02</pdfrwt>
<totfact> 0.12497112E+08</totfact>
</mgrwt>
</event>
<event>
 4    1  0.9374408E+003  0.2560844E+02  0.7546771E-02  0.1652413E+00
         21   -1    0    0  502  501  0.00000000000E+00  0.00000000000E+00  0.12133268064E+02  0.12133268064E+02  0.00000000000E+00 0. -1.
         21   -1    0    0  504  502 -0.00000000000E+00 -0.00000000000E+00 -0.55580736334E+02  0.55580736334E+02  0.00000000000E+00 0. -1.
         21    1    1    2  503  501 -0.23322664285E+02  0.10575696395E+02 -0.27344124314E+02  0.37463224075E+02  0.00000000000E+00 0. -1.
         21    1    1    2  504  503  0.23322664285E+02 -0.10575696395E+02 -0.16103343955E+02  0.30250780323E+02  0.00000000000E+00 0. -1.
<mgrwt>
<rscale>  2 0.25608437E+02</rscale>
<asrwt>0</asrwt>
<pdfrwt beam="1">  1       21 0.18666566E-02 0.25608437E+02</pdfrwt>
<pdfrwt beam="2">  1       21 0.85508824E-02 0.25608437E+02</pdfrwt>
<totfact> 0.10329537E+08</totfact>
</mgrwt>
</event>
<event>
 4    1  0.9374408E+003  0.2981857E+02  0.7546771E-02  0.1600103E+00
         21   -1    0    0  502  501  0.00000000000E+00  0.00000000000E+00  0.16567754149E+03  0.16567754149E+03  0.00000000000E+00 0.  1.
         21   -1    0    0  503  502 -0.00000000000E+00 -0.00000000000E+00 -0.14953502673E+02  0.14953502673E+02  0.00000000000E+00 0.  1.
         21    1    1    2  503  504 -0.27352793425E+02 -0.11873158064E+02  0.14767679931E+03  0.15065717456E+03  0.00000000000E+00 0. -1.
         21    1    1    2  504  501  0.27352793425E+02  0.11873158064E+02  0.30472395061E+01  0.29973869606E+02  0.00000000000E+00 0. -1.
<mgrwt>
<rscale>  2 0.29818571E+02</rscale>
<asrwt>0</asrwt>
<pdfrwt beam="1">  1       21 0.25488851E-01 0.29818571E+02</pdfrwt>
<pdfrwt beam="2">  1       21 0.23005390E-02 0.29818571E+02</pdfrwt>
<totfact> 0.11842755E+07</totfact>
</mgrwt>
</event>
<event>
 4    1  0.9374408E+003  0.2011368E+02  0.7546771E-02  0.1743077E+00
         21   -1    0    0  504  501  0.00000000000E+00  0.00000000000E+00  0.24604195775E+02  0.24604195775E+02  0.00000000000E+00 0. -1.
         21   -1    0    0  501  502 -0.00000000000E+00 -0.00000000000E+00 -0.22878373084E+02  0.22878373084E+02  0.00000000000E+00 0. -1.
         21    1    1    2  503  502 -0.97005396049E+01  0.17619867849E+02 -0.11728880335E+02  0.23283617536E+02  0.00000000000E+00 0.  1.
         21    1    1    2  504  503  0.97005396049E+01 -0.17619867849E+02  0.13454703026E+02  0.24198951323E+02  0.00000000000E+00 0.  1.
<mgrwt>
<rscale>  2 0.20113682E+02</rscale>
<asrwt>0</asrwt>
<pdfrwt beam="1">  1       21 0.37852609E-02 0.20113682E+02</pdfrwt>
<pdfrwt beam="2">  1       21 0.35197497E-02 0.20113682E+02</pdfrwt>
<totfact> 0.13312010E+08</totfact>
</mgrwt>
</event>
<event>
 4    1  0.9374408E+003  0.4117701E+02  0.7546771E-02  0.1499724E+00
         21   -1    0    0  502  501  0.00000000000E+00  0.00000000000E+00  0.29423547611E+01  0.29423547611E+01  0.00000000000E+00 0. -1.
         21   -1    0    0  503  502 -0.00000000000E+00 -0.00000000000E+00 -0.63687762826E+03  0.63687762826E+03  0.00000000000E+00 0. -1.
         21    1    1    2  503  504 -0.88844557777E+01 -0.40207121366E+02 -0.41566777754E+03  0.41770234312E+03  0.00000000000E+00 0.  1.
         21    1    1    2  504  501  0.88844557777E+01  0.40207121366E+02 -0.21826749596E+03  0.22211763990E+03  0.00000000000E+00 0.  1.
<mgrwt>
<rscale>  2 0.41177010E+02</rscale>
<asrwt>0</asrwt>
<pdfrwt beam="1">  1       21 0.45267041E-03 0.41177010E+02</pdfrwt>
<pdfrwt beam="2">  1       21 0.97981076E-01 0.41177010E+02</pdfrwt>
<totfact> 0.10122223E+07</totfact>
</mgrwt>
</event>
<event>
 4    1  0.9374408E+003  0.2631241E+02  0.7546771E-02  0.1642837E+00
         21   -1    0    0  503  501  0.00000000000E+00  0.00000000000E+00  0.65331166530E+02  0.65331166530E+02  0.00000000000E+00 0.  1.
         21   -1    0    0  501  502 -0.00000000000E+00 -0.00000000000E+00 -0.16132235112E+02  0.16132235112E+02  0.00000000000E+00 0.  1.
         21    1    1    2  503  504  0.15666455660E+02  0.21140133685E+02  0.48457577405E+02  0.55140546725E+02  0.00000000000E+00 0.  1.
         21    1    1    2  504  502 -0.15666455660E+02 -0.21140133685E+02  0.74135401270E+00  0.26322854917E+02  0.00000000000E+00 0.  1.
<mgrwt>
<rscale>  2 0.26312413E+02</rscale>
<asrwt>0</asrwt>
<pdfrwt beam="1">  1       21 0.10050949E-01 0.26312413E+02</pdfrwt>
<pdfrwt beam="2">  1       21 0.24818824E-02 0.26312413E+02</pdfrwt>
<totfact> 0.51253941E+07</totfact>
</mgrwt>
</event>
<event>
 4    1  0.9374408E+003  0.2365442E+02  0.7546771E-02  0.1681117E+00
         21   -1    0    0  502  501  0.00000000000E+00  0.00000000000E+00  0.31825333472E+02  0.31825333472E+02  0.00000000000E+00 0.  1.
         21   -1    0    0  504  502 -0.00000000000E+00 -0.00000000000E+00 -0.26296971166E+02  0.26296971166E+02  0.00000000000E+00 0.  1.
         21    1    1    2  503  501 -0.13407296410E+02  0.19487845124E+02  0.19494708304E+02  0.30652493479E+02  0.00000000000E+00 0.  1.
         21    1    1    2  504  503  0.13407296410E+02 -0.19487845124E+02 -0.13966345998E+02  0.27469811160E+02  0.00000000000E+00 0.  1.
<mgrwt>
<rscale>  2 0.23654423E+02</rscale>
<asrwt>0</asrwt>
<pdfrwt beam="1">  1       21 0.48962052E-02 0.23654423E+02</pdfrwt>
<pdfrwt beam="2">  1       21 0.40456878E-02 0.23654423E+02</pdfrwt>
<totfact> 0.74756326E+07</totfact>
</mgrwt>
</event>
<event>
 4    1  0.9374408E+003  0.2147919E+02  0.7546771E-02  0.1717418E+00
         21   -1    0    0  504  501  0.00000000000E+00  0.00000000000E+00  0.64661102161E+03  0.64661102161E+03  0.00000000000E+00 0. -1.
         21   -1    0    0  501  502 -0.00000000000E+00 -0.00000000000E+00 -0.26428069779E+01  0.26428069779E+01  0.00000000000E+00 0. -1.
         21    1    1    2  503  502 -0.65376082826E+01 -0.20460091989E+02  0.44618447264E+02  0.49519304544E+02  0.00000000000E+00 0. -1.
         21    1    1    2  504  503  0.65376082826E+01  0.20460091989E+02  0.59934976737E+03  0.59973452404E+03  0.00000000000E+00 0. -1.
<mgrwt>
<rscale>  2 0.21479192E+02</rscale>
<asrwt>0</asrwt>
<pdfrwt beam="1">  1       21 0.99478493E-01 0.21479192E+02</pdfrwt>
<pdfrwt beam="2">  1       21 0.40658620E-03 0.21479192E+02</pdfrwt>
<totfact> 0.10477179E+07</totfact>
</mgrwt>
</event>
<event>
 4    1  0.9374408E+003  0.2766848E+02  0.7546771E-02  0.1625389E+00
         21   -1    0    0  502  501  0.00000000000E+00  0.00000000000E+00  0.53108929690E+01  0.53108929690E+01  0.00000000000E+00 0.  1.
         21   -1    0    0  503  502 -0.00000000000E+00 -0.00000000000E+00 -0.50413349103E+03  0.50413349103E+03  0.00000000000E+00 0.  1.
         21    1    1    2  503  504  0.21438996284E+02 -0.17490403744E+02 -0.34164043970E+02  0.43962787505E+02  0.00000000000E+00 0. -1.
         21    1    1    2  504  501 -0.21438996284E+02  0.17490403744E+02 -0.46465855409E+03  0.46548159649E+03  0.00000000000E+00 0. -1.
<mgrwt>
<rscale>  2 0.27668480E+02</rscale>
<asrwt>0</asrwt>
<pdfrwt beam="1">  1       21 0.81706020E-03 0.27668480E+02</pdfrwt>
<pdfrwt beam="2">  1       21 0.77559023E-01 0.27668480E+02</pdfrwt>
<totfact> 0.65908008E+06</totfact>
</mgrwt>
</event>
<event>
 4    1  0.9374408E+003  0.2113441E+02  0.7546771E-02  0.1723667E+00
         21   -1    0    0  504  501  0.00000000000E+00  0.00000000000E+00  0.31214763614E+02  0.31214763614E+02  0.00000000000E+00 0. -1.
         21   -1    0    0  501  502 -0.00000000000E+00 -0.00000000000E+00 -0.82622523132E+02  0.82622523132E+02  0.00000000000E+00 0. -1.
         21    1    1    2  503  502 -0.13226482397E+02 -0.16484041424E+02  0.26051737685E+02  0.33546333550E+02  0.00000000000E+00 0.  1.
         21    1    1    2  504  503  0.13226482397E+02  0.16484041424E+02 -0.77459497202E+02  0.80290953196E+02  0.00000000000E+00 0.  1.
<mgrwt>
<rscale>  2 0.21134414E+02</rscale>
<asrwt>0</asrwt>
<pdfrwt beam="1">  1       21 0.48022714E-02 0.21134414E+02</pdfrwt>
<pdfrwt beam="2">  1       21 0.12711157E-01 0.21134414E+02</pdfrwt>
<totfact> 0.11714371E+07</totfact>
</mgrwt>
</event>
<event>
 4    1  0.9374408E+003  0.2293924E+02  0.7546771E-02  0.1692497E+00
         21   -1    0    0  502  501  0.00000000000E+00  0.00000000000E+00  0.25302789974E+03  0.25302789974E+03  0.00000000000E+00 0. -1.
         21   -1    0    0  504  502 -0.00000000000E+00 -0.00000000000E+00 -0.23430012397E+01  0.23430012397E+01  0.00000000000E+00 0. -1.
         21    1    1    2  503  501  0.10931453937E+02 -0.20167098802E+02  0.82534363213E+02  0.85662883854E+02  0.00000000000E+00 0.  1.
         21    1    1    2  504  503 -0.10931453937E+02  0.20167098802E+02  0.16815053529E+03  0.16970801712E+03  0.00000000000E+00 0.  1.
<mgrwt>
<rscale>  2 0.22939236E+02</rscale>
<asrwt>0</asrwt>
<pdfrwt beam="1">  1       21 0.38927348E-01 0.22939236E+02</pdfrwt>
<pdfrwt beam="2">  1       21 0.36046193E-03 0.22939236E+02</pdfrwt>
<totfact> 0.83852897E+07</totfact>
</mgrwt>
</event>
<event>
 4    1  0.9374408E+003  0.3342782E+02  0.7546771E-02  0.1563022E+00
         21   -1    0    0  502  501  0.00000000000E+00  0.00000000000E+00  0.12155754957E+03  0.12155754957E+03  0.00000000000E+00 0.  1.
         21   -1    0    0  503  502 -0.00000000000E+00 -0.00000000000E+00 -0.18801066218E+02  0.18801066218E+02  0.00000000000E+00 0.  1.
         21    1    1    2  503  504  0.10675043621E+02  0.31677472943E+02  0.10154856912E+03  0.10690898343E+03  0.00000000000E+00 0. -1.
         21    1    1    2  504  501 -0.10675043621E+02 -0.31677472943E+02  0.12079142384E+01  0.33449632362E+02  0.00000000000E+00 0. -1.
<mgrwt>
<rscale>  2 0.33427815E+02</rscale>
<asrwt>0</asrwt>
<pdfrwt beam="1">  1       21 0.18701161E-01 0.33427815E+02</pdfrwt>
<pdfrwt beam="2">  1       21 0.28924718E-02 0.33427815E+02</pdfrwt>
<totfact> 0.14638788E+07</totfact>
</mgrwt>
</event>
<event>
 4    1  0.9374408E+003  0.2371066E+02  0.7546771E-02  0.1680243E+00
         21   -1    0    0  502  501  0.00000000000E+00  0.00000000000E+00  0.17310988116E+04  0.17310988116E+04  0.00000000000E+00 0. -1.
         21   -1    0    0  503  502 -0.00000000000E+00 -0.00000000000E+00 -0.45261619682E+00  0.45261619682E+00  0.00000000000E+00 0. -1.
         21    1    1    2  503  504 -0.63231294803E+01  0.22851991734E+02  0.40517516568E+03  0.40586834119E+03  0.00000000000E+00 0.  1.
         21    1    1    2  504  501  0.63231294803E+01 -0.22851991734E+02  0.13254710297E+04  0.13256830866E+04  0.00000000000E+00 0.  1.
<mgrwt>
<rscale>  2 0.23710662E+02</rscale>
<asrwt>0</asrwt>
<pdfrwt beam="1">  1       21 0.26631759E+00 0.23710662E+02</pdfrwt>
<pdfrwt beam="2">  1       21 0.69634647E-04 0.23710662E+02</pdfrwt>
<totfact> 0.11847382E+07</totfact>
</mgrwt>
</event>
<event>
 4    1  0.9374408E+003  0.2741733E+02  0.7546771E-02  0.1628527E+00
         21   -1    0    0  502  501  0.00000000000E+00  0.00000000000E+00  0.10769782008E+01  0.10769782008E+01  0.00000000000E+00 0.  1.
         21   -1    0    0  504  502 -0.00000000000E+00 -0.00000000000E+00 -0.81683812619E+03  0.81683812619E+03  0.00000000000E+00 0.  1.
         21    1    1    2  503  501 -0.15392124690E+02  0.22689039379E+02 -0.56388013385E+03  0.56454629160E+03  0.00000000000E+00 0. -1.
         21    1    1    2  504  503  0.15392124690E+02 -0.22689039379E+02 -0.25188101414E+03  0.25336881279E+03  0.00000000000E+00 0. -1.
<mgrwt>
<rscale>  2 0.27417330E+02</rscale>
<asrwt>0</asrwt>
<pdfrwt beam="1">  1       21 0.16568999E-03 0.27417330E+02</pdfrwt>
<pdfrwt beam="2">  1       21 0.12566662E+00 0.27417330E+02</pdfrwt>
<totfact> 0.23875486E+07</totfact>
</mgrwt>
</event>
<event>
 4    1  0.9374408E+003  0.4237016E+02  0.7546771E-02  0.1491460E+00
         21   -1    0    0  504  501  0.00000000000E+00  0.00000000000E+00  0.19716717445E+01  0.19716717445E+01  0.00000000000E+00 0. -1.
         21   -1    0    0  501  502 -0.00000000000E+00 -0.00000000000E+00 -0.10621721679E+04  0.10621721679E+04  0.00000000000E+00 0. -1.
         21    1    1    2  503  502 -0.41965098185E+02 -0.58447695533E+01 -0.32904813711E+03  0.33176483740E+03  0.00000000000E+00 0.  1.
         21    1    1    2  504  503  0.41965098185E+02  0.58447695533E+01 -0.73115235903E+03  0.73237900223E+03  0.00000000000E+00 0.  1.
<mgrwt>
<rscale>  2 0.42370164E+02</rscale>
<asrwt>0</asrwt>
<pdfrwt beam="1">  1       21 0.30333358E-03 0.42370164E+02</pdfrwt>
<pdfrwt beam="2">  1       21 0.16341139E+00 0.42370164E+02</pdfrwt>
<totfact> 0.55030300E+06</totfact>
</mgrwt>
</event>
<event>
 4    1  0.9374408E+003  0.2140689E+02  0.7546771E-02  0.1718716E+00
         21   -1    0    0  502  501  0.00000000000E+00  0.00000000000E+00  0.26057990177E+02  0.26057990177E+02  0.00000000000E+00 0.  1.
         21   -1    0    0  504  502 -0.00000000000E+00 -0.00000000000E+00 -0.43689320810E+02  0.43689320810E+02  0.00000000000E+00 0.  1.
         21    1    1    2  503  501  0.13080117604E+02 -0.16945959191E+02  0.18140490869E+02  0.28059444370E+02  0.00000000000E+00 0. -1.
         21    1    1    2  504  503 -0.13080117604E+02  0.16945959191E+02 -0.35771821503E+02  0.41687866617E+02  0.00000000000E+00 0. -1.
<mgrwt>
<rscale>  2 0.21406892E+02</rscale>
<asrwt>0</asrwt>
<pdfrwt beam="1">  1       21 0.40089216E-02 0.21406892E+02</pdfrwt>
<pdfrwt beam="2">  1       21 0.67214339E-02 0.21406892E+02</pdfrwt>
<totfact> 0.44455273E+07</totfact>
</mgrwt>
</event>
<event>
 4    1  0.9374408E+003  0.2186003E+02  0.7546771E-02  0.1710684E+00
         21   -1    0    0  502  501  0.00000000000E+00  0.00000000000E+00  0.47225409107E+01  0.47225409107E+01  0.00000000000E+00 0.  1.
         21   -1    0    0  503  502 -0.00000000000E+00 -0.00000000000E+00 -0.18032725342E+03  0.18032725342E+03  0.00000000000E+00 0.  1.
         21    1    1    2  503  504 -0.21731918300E+02 -0.23631749147E+01 -0.14909748954E+03  0.15069148037E+03  0.00000000000E+00 0. -1.
         21    1    1    2  504  501  0.21731918300E+02  0.23631749147E+01 -0.26507222966E+02  0.34358313959E+02  0.00000000000E+00 0. -1.
<mgrwt>
<rscale>  2 0.21860029E+02</rscale>
<asrwt>0</asrwt>
<pdfrwt beam="1">  1       21 0.72654485E-03 0.21860029E+02</pdfrwt>
<pdfrwt beam="2">  1       21 0.27742651E-01 0.21860029E+02</pdfrwt>
<totfact> 0.54890662E+07</totfact>
</mgrwt>
</event>
<event>
 4    1  0.9374408E+003  0.2827284E+02  0.7546771E-02  0.1618004E+00
         21   -1    0    0  504  501  0.00000000000E+00  0.00000000000E+00  0.17333450549E+02  0.17333450549E+02  0.00000000000E+00 0. -1.
         21   -1    0    0  501  502 -0.00000000000E+00 -0.00000000000E+00 -0.64102602386E+02  0.64102602386E+02  0.00000000000E+00 0. -1.
         21    1    1    2  503  502 -0.25503245396E+02 -0.12204008557E+02 -0.44953113981E+02  0.53104950873E+02  0.00000000000E+00 0.  1.
         21    1    1    2  504  503  0.25503245396E+02  0.12204008557E+02 -0.18160378564E+01  0.28331102062E+02  0.00000000000E+00 0.  1.
<mgrwt>
<rscale>  2 0.28272838E+02</rscale>
<asrwt>0</asrwt>
<pdfrwt beam="1">  1       21 0.26666846E-02 0.28272838E+02</pdfrwt>
<pdfrwt beam="2">  1       21 0.98619390E-02 0.28272838E+02</pdfrwt>
<totfact> 0.48102968E+07</totfact>
</mgrwt>
</event>
<event>
 4    1  0.9374408E+003  0.2191097E+02  0.7546771E-02  0.1709796E+00
         21   -1    0    0  504  501  0.00000000000E+00  0.00000000000E+00  0.25723199340E+01  0.25723199340E+01  0.00000000000E+00 0. -1.
         21   -1    0    0  501  502 -0.00000000000E+00 -0.00000000000E+00 -0.37510390482E+03  0.37510390482E+03  0.00000000000E+00 0. -1.
         21    1    1    2  503  502  0.14755942356E+02  0.16197306552E+02 -0.32011973998E+03  0.32086872472E+03  0.00000000000E+00 0. -1.
         21    1    1    2  504  503 -0.14755942356E+02 -0.16197306552E+02 -0.52411844899E+02  0.56807500034E+02  0.00000000000E+00 0. -1.
<mgrwt>
<rscale>  2 0.21910969E+02</rscale>
<asrwt>0</asrwt>
<pdfrwt beam="1">  1       21 0.39574153E-03 0.21910969E+02</pdfrwt>
<pdfrwt beam="2">  1       21 0.57708293E-01 0.21910969E+02</pdfrwt>
<totfact> 0.33865795E+07</totfact>
</mgrwt>
</event>
<event>
 4    1  0.9374408E+003  0.2072698E+02  0.7546771E-02  0.1731246E+00
         21   -1    0    0  504  501  0.00000000000E+00  0.00000000000E+00  0.26488880363E+03  0.26488880363E+03  0.00000000000E+00 0. -1.
         21   -1    0    0  501  502 -0.00000000000E+00 -0.00000000000E+00 -0.40646342862E+01  0.40646342862E+01  0.00000000000E+00 0. -1.
         21    1    1    2  503  502 -0.20108143714E+02  0.50269636346E+01  0.23466294065E+03  0.23557653432E+03  0.00000000000E+00 0.  1.
         21    1    1    2  504  503  0.20108143714E+02 -0.50269636346E+01  0.26161228693E+02  0.33376903597E+02  0.00000000000E+00 0.  1.
<mgrwt>
<rscale>  2 0.20726983E+02</rscale>
<asrwt>0</asrwt>
<pdfrwt beam="1">  1       21 0.40752110E-01 0.20726983E+02</pdfrwt>
<pdfrwt beam="2">  1       21 0.62532856E-03 0.20726983E+02</pdfrwt>
<totfact> 0.33380351E+07</totfact>
</mgrwt>
</event>
<event>
 4    1  0.9374408E+003  0.2197347E+02  0.7546771E-02  0.1708711E+00
         21   -1    0    0  502  501  0.00000000000E+00  0.00000000000E+00  0.33077211891E+03  0.33077211891E+03  0.00000000000E+00 0.  1.
         21   -1    0    0  504  502 -0.00000000000E+00 -0.00000000000E+00 -0.49107418481E+01  0.49107418481E+01  0.00000000000E+00 0.  1.
         21    1    1    2  503  501  0.43569292734E+01  0.21537188057E+02  0.30363251524E+03  0.30442657179E+03  0.00000000000E+00 0.  1.
         21    1    1    2  504  503 -0.43569292734E+01 -0.21537188057E+02  0.22228861825E+02  0.31256288969E+02  0.00000000000E+00 0.  1.
<mgrwt>
<rscale>  2 0.21973468E+02</rscale>
<asrwt>0</asrwt>
<pdfrwt beam="1">  1       21 0.50888001E-01 0.21973468E+02</pdfrwt>
<pdfrwt beam="2">  1       21 0.75549900E-03 0.21973468E+02</pdfrwt>
<totfact> 0.16702843E+07</totfact>
</mgrwt>
</event>
<event>
 4    1  0.9374408E+003  0.3826009E+02  0.7546771E-02  0.1521420E+00
         21   -1    0    0  502  501  0.00000000000E+00  0.00000000000E+00  0.17157035541E+02  0.17157035541E+02  0.00000000000E+00 0.  1.
         21   -1    0    0  503  502 -0.00000000000E+00 -0.00000000000E+00 -0.10374865498E+03  0.10374865498E+03  0.00000000000E+00 0.  1.
         21    1    1    2  503  504 -0.21003573454E+02  0.31979440974E+02 -0.17817257149E+02  0.42205324251E+02  0.00000000000E+00 0.  1.
         21    1    1    2  504  501  0.21003573454E+02 -0.31979440974E+02 -0.68774362295E+02  0.78700366275E+02  0.00000000000E+00 0.  1.
<mgrwt>
<rscale>  2 0.38260093E+02</rscale>
<asrwt>0</asrwt>
<pdfrwt beam="1">  1       21 0.26395439E-02 0.38260093E+02</pdfrwt>
<pdfrwt beam="2">  1       21 0.15961332E-01 0.38260093E+02</pdfrwt>
<totfact> 0.22825372E+07</totfact>
</mgrwt>
</event>
<event>
 4    1  0.9374408E+003  0.2252814E+02  0.7546771E-02  0.1699275E+00
         21   -1    0    0  502  501  0.00000000000E+00  0.00000000000E+00  0.35879302249E+02  0.35879302249E+02  0.00000000000E+00 0. -1.
         21   -1    0    0  503  502 -0.00000000000E+00 -0.00000000000E+00 -0.29657295878E+02  0.29657295878E+02  0.00000000000E+00 0. -1.
         21    1    1    2  503  504  0.99655003199E+01 -0.20204108483E+02 -0.20587691239E+02  0.30518358848E+02  0.00000000000E+00 0.  1.
         21    1    1    2  504  501 -0.99655003199E+01  0.20204108483E+02  0.26809697610E+02  0.35018239278E+02  0.00000000000E+00 0.  1.
<mgrwt>
<rscale>  2 0.22528142E+02</rscale>
<asrwt>0</asrwt>
<pdfrwt beam="1">  1       21 0.55198926E-02 0.22528142E+02</pdfrwt>
<pdfrwt beam="2">  1       21 0.45626609E-02 0.22528142E+02</pdfrwt>
<totfact> 0.50385621E+07</totfact>
</mgrwt>
</event>
<event>
 4    1  0.9374408E+003  0.2035856E+02  0.7546771E-02  0.1738290E+00
         21   -1    0    0  503  501  0.00000000000E+00  0.00000000000E+00  0.12672377243E+03  0.12672377243E+03  0.00000000000E+00 0.  1.
         21   -1    0    0  501  502 -0.00000000000E+00 -0.00000000000E+00 -0.47429200173E+01  0.47429200173E+01  0.00000000000E+00 0.  1.
         21    1    1    2  503  504  0.19382974033E+02  0.62266571512E+01  0.97613470170E+02  0.99713893216E+02  0.00000000000E+00 0.  1.
         21    1    1    2  504  502 -0.19382974033E+02 -0.62266571512E+01  0.24367382242E+02  0.31752799231E+02  0.00000000000E+00 0.  1.
<mgrwt>
<rscale>  2 0.20358559E+02</rscale>
<asrwt>0</asrwt>
<pdfrwt beam="1">  1       21 0.19495962E-01 0.20358559E+02</pdfrwt>
<pdfrwt beam="2">  1       21 0.72968010E-03 0.20358559E+02</pdfrwt>
<totfact> 0.99684943E+07</totfact>
</mgrwt>
</event>
<event>
 4    1  0.9374408E+003  0.2118048E+02  0.7546771E-02  0.1722823E+00
         21   -1    0    0  502  501  0.00000000000E+00  0.00000000000E+00  0.63532781295E+00  0.63532781295E+00  0.00000000000E+00 0.  1.
         21   -1    0    0  503  502 -0.00000000000E+00 -0.00000000000E+00 -0.11182317492E+04  0.11182317492E+04  0.00000000000E+00 0.  1.
         21    1    1    2  503  504  0.20439737477E+02  0.55524703768E+01 -0.21917752455E+03  0.22019854692E+03  0.00000000000E+00 0. -1.
         21    1    1    2  504  501 -0.20439737477E+02 -0.55524703768E+01 -0.89841889684E+03  0.89866853010E+03  0.00000000000E+00 0. -1.
<mgrwt>
<rscale>  2 0.21180481E+02</rscale>
<asrwt>0</asrwt>
<pdfrwt beam="1">  1       21 0.97742420E-04 0.21180481E+02</pdfrwt>
<pdfrwt beam="2">  1       21 0.17203622E+00 0.21180481E+02</pdfrwt>
<totfact> 0.23128723E+07</totfact>
</mgrwt>
</event>
<event>
 4    1  0.9374408E+003  0.4263704E+02  0.7546771E-02  0.1489656E+00
         21   -1    0    0  504  501  0.00000000000E+00  0.00000000000E+00  0.37263917509E+03  0.37263917509E+03  0.00000000000E+00 0.  1.
         21   -1    0    0  501  502 -0.00000000000E+00 -0.00000000000E+00 -0.69561458694E+01  0.69561458694E+01  0.00000000000E+00 0.  1.
         21    1    1    2  503  502  0.14355397201E+02 -0.40147722271E+02  0.28656883764E+03  0.28972334345E+03  0.00000000000E+00 0.  1.
         21    1    1    2  504  503 -0.14355397201E+02  0.40147722271E+02  0.79114191581E+02  0.89871977511E+02  0.00000000000E+00 0.  1.
<mgrwt>
<rscale>  2 0.42637038E+02</rscale>
<asrwt>0</asrwt>
<pdfrwt beam="1">  1       21 0.57329088E-01 0.42637038E+02</pdfrwt>
<pdfrwt beam="2">  1       21 0.10701766E-02 0.42637038E+02</pdfrwt>
<totfact> 0.86289388E+06</totfact>
</mgrwt>
</event>
<event>
 4    1  0.9374408E+003  0.2688611E+02  0.7546771E-02  0.1635301E+00
         21   -1    0    0  502  501  0.00000000000E+00  0.00000000000E+00  0.45340275642E+01  0.45340275642E+01  0.00000000000E+00 0.  1.
         21   -1    0    0  504  502 -0.00000000000E+00 -0.00000000000E+00 -0.39419514060E+03  0.39419514060E+03  0.00000000000E+00 0.  1.
         21    1    1    2  503  501  0.26846871896E+02 -0.14520627189E+01 -0.34868447820E+03  0.34971949954E+03  0.00000000000E+00 0.  1.
         21    1    1    2  504  503 -0.26846871896E+02  0.14520627189E+01 -0.40976634836E+02  0.49009668630E+02  0.00000000000E+00 0.  1.
<mgrwt>
<rscale>  2 0.26886112E+02</rscale>
<asrwt>0</asrwt>
<pdfrwt beam="1">  1       21 0.69754287E-03 0.26886112E+02</pdfrwt>
<pdfrwt beam="2">  1       21 0.60645391E-01 0.26886112E+02</pdfrwt>
<totfact> 0.13801619E+07</totfact>
</mgrwt>
</event>
<event>
 4    1  0.9374408E+003  0.2861040E+02  0.7546771E-02  0.1613977E+00
         21   -1    0    0  502  501  0.00000000000E+00  0.00000000000E+00  0.12187566796E+02  0.12187566796E+02  0.00000000000E+00 0. -1.
         21   -1    0    0  503  502 -0.00000000000E+00 -0.00000000000E+00 -0.13180622424E+03  0.13180622424E+03  0.00000000000E+00 0. -1.
         21    1    1    2  503  504  0.15588449179E+02  0.23990729716E+02 -0.11022980619E+03  0.11388224195E+03  0.00000000000E+00 0.  1.
         21    1    1    2  504  501 -0.15588449179E+02 -0.23990729716E+02 -0.93888512549E+01  0.30111549080E+02  0.00000000000E+00 0.  1.
<mgrwt>
<rscale>  2 0.28610398E+02</rscale>
<asrwt>0</asrwt>
<pdfrwt beam="1">  1       21 0.18750102E-02 0.28610398E+02</pdfrwt>
<pdfrwt beam="2">  1       21 0.20277881E-01 0.28610398E+02</pdfrwt>
<totfact> 0.24266923E+07</totfact>
</mgrwt>
</event>
<event>
 4    1  0.9374408E+003  0.2471051E+02  0.7546771E-02  0.1665195E+00
         21   -1    0    0  502  501  0.00000000000E+00  0.00000000000E+00  0.38223062016E+01  0.38223062016E+01  0.00000000000E+00 0.  1.
         21   -1    0    0  503  502 -0.00000000000E+00 -0.00000000000E+00 -0.55642692569E+03  0.55642692569E+03  0.00000000000E+00 0.  1.
         21    1    1    2  503  504  0.15422121264E+02 -0.19307186512E+02 -0.51282143695E+03  0.51341643475E+03  0.00000000000E+00 0. -1.
         21    1    1    2  504  501 -0.15422121264E+02  0.19307186512E+02 -0.39783182539E+02  0.46832797143E+02  0.00000000000E+00 0. -1.
<mgrwt>
<rscale>  2 0.24710509E+02</rscale>
<asrwt>0</asrwt>
<pdfrwt beam="1">  1       21 0.58804731E-03 0.24710509E+02</pdfrwt>
<pdfrwt beam="2">  1       21 0.85604113E-01 0.24710509E+02</pdfrwt>
<totfact> 0.85990206E+06</totfact>
</mgrwt>
</event>
<event>
 4    1  0.9374408E+003  0.2295678E+02  0.7546771E-02  0.1692212E+00
         21   -1    0    0  502  501  0.00000000000E+00  0.00000000000E+00  0.17402264572E+02  0.17402264572E+02  0.00000000000E+00 0. -1.
         21   -1    0    0  503  502 -0.00000000000E+00 -0.00000000000E+00 -0.46194398555E+02  0.46194398555E+02  0.00000000000E+00 0. -1.
         21    1    1    2  503  504  0.28602444850E+01  0.22777903636E+02 -0.33057598951E+02  0.40246971824E+02  0.00000000000E+00 0.  1.
         21    1    1    2  504  501 -0.28602444850E+01 -0.22777903636E+02  0.42654649688E+01  0.23349691304E+02  0.00000000000E+00 0.  1.
<mgrwt>
<rscale>  2 0.22956783E+02</rscale>
<asrwt>0</asrwt>
<pdfrwt beam="1">  1       21 0.26772714E-02 0.22956783E+02</pdfrwt>
<pdfrwt beam="2">  1       21 0.71068306E-02 0.22956783E+02</pdfrwt>
<totfact> 0.77729654E+07</totfact>
</mgrwt>
</event>
<event>
 4    1  0.9374408E+003  0.2274673E+02  0.7546771E-02  0.1695649E+00
         21   -1    0    0  502  501  0.00000000000E+00  0.00000000000E+00  0.22896602207E+02  0.22896602207E+02  0.00000000000E+00 0. -1.
         21   -1    0    0  503  502 -0.00000000000E+00 -0.00000000000E+00 -0.29319695238E+02  0.29319695238E+02  0.00000000000E+00 0. -1.
         21    1    1    2  503  504  0.19138357957E+02 -0.12293776926E+02 -0.15712438708E+02  0.27645875399E+02  0.00000000000E+00 0.  1.
         21    1    1    2  504  501 -0.19138357957E+02  0.12293776926E+02  0.92893456769E+01  0.24570422046E+02  0.00000000000E+00 0.  1.
<mgrwt>
<rscale>  2 0.22746729E+02</rscale>
<asrwt>0</asrwt>
<pdfrwt beam="1">  1       21 0.35225542E-02 0.22746729E+02</pdfrwt>
<pdfrwt beam="2">  1       21 0.45107224E-02 0.22746729E+02</pdfrwt>
<totfact> 0.10469731E+08</totfact>
</mgrwt>
</event>
<event>
 4    1  0.9374408E+003  0.2147234E+02  0.7546771E-02  0.1717541E+00
         21   -1    0    0  503  501  0.00000000000E+00  0.00000000000E+00  0.66124569157E+01  0.66124569157E+01  0.00000000000E+00 0. -1.
         21   -1    0    0  501  502 -0.00000000000E+00 -0.00000000000E+00 -0.75959336072E+02  0.75959336072E+02  0.00000000000E+00 0. -1.
         21    1    1    2  503  504 -0.19106724860E+02  0.97976730220E+01 -0.46500186297E+02  0.51218440597E+02  0.00000000000E+00 0.  1.
         21    1    1    2  504  502  0.19106724860E+02 -0.97976730220E+01 -0.22846692859E+02  0.31353352391E+02  0.00000000000E+00 0.  1.
<mgrwt>
<rscale>  2 0.21472339E+02</rscale>
<asrwt>0</asrwt>
<pdfrwt beam="1">  1       21 0.10173010E-02 0.21472339E+02</pdfrwt>
<pdfrwt beam="2">  1       21 0.11686052E-01 0.21472339E+02</pdfrwt>
<totfact> 0.14707660E+08</totfact>
</mgrwt>
</event>
<event>
 4    1  0.9374408E+003  0.2767525E+02  0.7546771E-02  0.1625305E+00
         21   -1    0    0  503  501  0.00000000000E+00  0.00000000000E+00  0.81295552006E+01  0.81295552006E+01  0.00000000000E+00 0. -1.
         21   -1    0    0  501  502 -0.00000000000E+00 -0.00000000000E+00 -0.12995795745E+03  0.12995795745E+03  0.00000000000E+00 0. -1.
         21    1    1    2  503  504 -0.20023838058E+01 -0.27602718176E+02 -0.97123743492E+02  0.10098980712E+03  0.00000000000E+00 0.  1.
         21    1    1    2  504  502  0.20023838058E+01  0.27602718176E+02 -0.24704658761E+02  0.37097705537E+02  0.00000000000E+00 0.  1.
<mgrwt>
<rscale>  2 0.27675252E+02</rscale>
<asrwt>0</asrwt>
<pdfrwt beam="1">  1       21 0.12507008E-02 0.27675252E+02</pdfrwt>
<pdfrwt beam="2">  1       21 0.19993531E-01 0.27675252E+02</pdfrwt>
<totfact> 0.45935387E+07</totfact>
</mgrwt>
</event>
<event>
 4    1  0.9374408E+003  0.2233125E+02  0.7546771E-02  0.1702585E+00
         21   -1    0    0  503  501  0.00000000000E+00  0.00000000000E+00  0.31534195968E+01  0.31534195968E+01  0.00000000000E+00 0.  1.
         21   -1    0    0  501  502 -0.00000000000E+00 -0.00000000000E+00 -0.16425408959E+03  0.16425408959E+03  0.00000000000E+00 0.  1.
         21    1    1    2  503  504  0.21785740281E+01  0.22224732810E+02 -0.64402393418E+02  0.68164163688E+02  0.00000000000E+00 0. -1.
         21    1    1    2  504  502 -0.21785740281E+01 -0.22224732810E+02 -0.96698276576E+02  0.99243345500E+02  0.00000000000E+00 0. -1.
<mgrwt>
<rscale>  2 0.22331255E+02</rscale>
<asrwt>0</asrwt>
<pdfrwt beam="1">  1       21 0.48514132E-03 0.22331255E+02</pdfrwt>
<pdfrwt beam="2">  1       21 0.25269868E-01 0.22331255E+02</pdfrwt>
<totfact> 0.11858233E+08</totfact>
</mgrwt>
</event>
<event>
 4    1  0.9374408E+003  0.2061330E+02  0.7546771E-02  0.1733400E+00
         21   -1    0    0  502  501  0.00000000000E+00  0.00000000000E+00  0.22943365223E+02  0.22943365223E+02  0.00000000000E+00 0. -1.
         21   -1    0    0  503  502 -0.00000000000E+00 -0.00000000000E+00 -0.50404637695E+02  0.50404637695E+02  0.00000000000E+00 0. -1.
         21    1    1    2  503  504 -0.45592507422E+01  0.20102765121E+02 -0.42899179471E+02  0.47594616629E+02  0.00000000000E+00 0. -1.
         21    1    1    2  504  501  0.45592507422E+01 -0.20102765121E+02  0.15437906999E+02  0.25753386289E+02  0.00000000000E+00 0. -1.
<mgrwt>
<rscale>  2 0.20613295E+02</rscale>
<asrwt>0</asrwt>
<pdfrwt beam="1">  1       21 0.35297485E-02 0.20613295E+02</pdfrwt>
<pdfrwt beam="2">  1       21 0.77545596E-02 0.20613295E+02</pdfrwt>
<totfact> 0.42646350E+07</totfact>
</mgrwt>
</event>
<event>
 4    1  0.9374408E+003  0.2556827E+02  0.7546771E-02  0.1652971E+00
         21   -1    0    0  502  501  0.00000000000E+00  0.00000000000E+00  0.33779287925E+03  0.33779287925E+03  0.00000000000E+00 0. -1.
         21   -1    0    0  504  502 -0.00000000000E+00 -0.00000000000E+00 -0.51478630445E+01  0.51478630445E+01  0.00000000000E+00 0. -1.
         21    1    1    2  503  501  0.81527977651E+01  0.24233620491E+02  0.30865885839E+02  0.40080411451E+02  0.00000000000E+00 0. -1.
         21    1    1    2  504  503 -0.81527977651E+01 -0.24233620491E+02  0.30177913037E+03  0.30286033085E+03  0.00000000000E+00 0. -1.
<mgrwt>
<rscale>  2 0.25568271E+02</rscale>
<asrwt>0</asrwt>
<pdfrwt beam="1">  1       21 0.51968118E-01 0.25568271E+02</pdfrwt>
<pdfrwt beam="2">  1       21 0.79197920E-03 0.25568271E+02</pdfrwt>
<totfact> 0.15382091E+07</totfact>
</mgrwt>
</event>
<event>
 4    1  0.9374408E+003  0.4371100E+02  0.7546771E-02  0.1482553E+00
         21   -1    0    0  503  501  0.00000000000E+00  0.00000000000E+00  0.17689327474E+02  0.17689327474E+02  0.00000000000E+00 0. -1.
         21   -1    0    0  501  502 -0.00000000000E+00 -0.00000000000E+00 -0.14371704924E+03  0.14371704924E+03  0.00000000000E+00 0. -1.
         21    1    1    2  503  504  0.43704670014E+02  0.74378889222E+00 -0.10323961519E+03  0.11211186176E+03  0.00000000000E+00 0. -1.
         21    1    1    2  504  502 -0.43704670014E+02 -0.74378889222E+00 -0.22788106572E+02  0.49294514949E+02  0.00000000000E+00 0. -1.
<mgrwt>
<rscale>  2 0.43710999E+02</rscale>
<asrwt>0</asrwt>
<pdfrwt beam="1">  1       21 0.27214349E-02 0.43710999E+02</pdfrwt>
<pdfrwt beam="2">  1       21 0.22110316E-01 0.43710999E+02</pdfrwt>
<totfact> 0.12444465E+07</totfact>
</mgrwt>
</event>
<event>
 4    1  0.9374408E+003  0.2118299E+02  0.7546771E-02  0.1722777E+00
         21   -1    0    0  503  501  0.00000000000E+00  0.00000000000E+00  0.15329165439E+02  0.15329165439E+02  0.00000000000E+00 0.  1.
         21   -1    0    0  501  502 -0.00000000000E+00 -0.00000000000E+00 -0.30950303581E+02  0.30950303581E+02  0.00000000000E+00 0.  1.
         21    1    1    2  503  504  0.16640582991E+02  0.13107638685E+02 -0.13198581193E+02  0.24958400183E+02  0.00000000000E+00 0.  1.
         21    1    1    2  504  502 -0.16640582991E+02 -0.13107638685E+02 -0.24225569490E+01  0.21321068837E+02  0.00000000000E+00 0.  1.
<mgrwt>
<rscale>  2 0.21182993E+02</rscale>
<asrwt>0</asrwt>
<pdfrwt beam="1">  1       21 0.23583332E-02 0.21182993E+02</pdfrwt>
<pdfrwt beam="2">  1       21 0.47615851E-02 0.21182993E+02</pdfrwt>
<totfact> 0.17530989E+08</totfact>
</mgrwt>
</event>
<event>
 4    1  0.9374408E+003  0.3002912E+02  0.7546771E-02  0.1597767E+00
         21   -1    0    0  502  501  0.00000000000E+00  0.00000000000E+00  0.47228962607E+03  0.47228962607E+03  0.00000000000E+00 0.  1.
         21   -1    0    0  504  502 -0.00000000000E+00 -0.00000000000E+00 -0.49039040593E+01  0.49039040593E+01  0.00000000000E+00 0.  1.
         21    1    1    2  503  501  0.29542431901E+02 -0.53844655290E+01  0.42014290044E+03  0.42121467750E+03  0.00000000000E+00 0. -1.
         21    1    1    2  504  503 -0.29542431901E+02  0.53844655290E+01  0.47242821568E+02  0.55978852627E+02  0.00000000000E+00 0. -1.
<mgrwt>
<rscale>  2 0.30029115E+02</rscale>
<asrwt>0</asrwt>
<pdfrwt beam="1">  1       21 0.72659907E-01 0.30029115E+02</pdfrwt>
<pdfrwt beam="2">  1       21 0.75444715E-03 0.30029115E+02</pdfrwt>
<totfact> 0.86163136E+06</totfact>
</mgrwt>
</event>
<event>
 4    1  0.9374408E+003  0.2798938E+02  0.7546771E-02  0.1621440E+00
         21   -1    0    0  502  501  0.00000000000E+00  0.00000000000E+00  0.26627313903E+02  0.26627313903E+02  0.00000000000E+00 0. -1.
         21   -1    0    0  503  502 -0.00000000000E+00 -0.00000000000E+00 -0.36261762580E+02  0.36261762580E+02  0.00000000000E+00 0. -1.
         21    1    1    2  503  504 -0.26257024673E+02 -0.96940154037E+01 -0.18474666099E+02  0.33536824042E+02  0.00000000000E+00 0.  1.
         21    1    1    2  504  501  0.26257024673E+02  0.96940154037E+01  0.88402174220E+01  0.29352252441E+02  0.00000000000E+00 0.  1.
<mgrwt>
<rscale>  2 0.27989378E+02</rscale>
<asrwt>0</asrwt>
<pdfrwt beam="1">  1       21 0.40965099E-02 0.27989378E+02</pdfrwt>
<pdfrwt beam="2">  1       21 0.55787327E-02 0.27989378E+02</pdfrwt>
<totfact> 0.62057504E+07</totfact>
</mgrwt>
</event>
<event>
 4    1  0.9374408E+003  0.2938593E+02  0.7546771E-02  0.1604977E+00
         21   -1    0    0  502  501  0.00000000000E+00  0.00000000000E+00  0.35726398618E+01  0.35726398618E+01  0.00000000000E+00 0.  1.
         21   -1    0    0  504  502 -0.00000000000E+00 -0.00000000000E+00 -0.28877741511E+03  0.28877741511E+03  0.00000000000E+00 0.  1.
         21    1    1    2  503  501  0.14875789911E+02 -0.25342533055E+02 -0.20161763580E+03  0.20374789367E+03  0.00000000000E+00 0. -1.
         21    1    1    2  504  503 -0.14875789911E+02  0.25342533055E+02 -0.83587139441E+02  0.88602161301E+02  0.00000000000E+00 0. -1.
<mgrwt>
<rscale>  2 0.29385934E+02</rscale>
<asrwt>0</asrwt>
<pdfrwt beam="1">  1       21 0.54963700E-03 0.29385934E+02</pdfrwt>
<pdfrwt beam="2">  1       21 0.44427286E-01 0.29385934E+02</pdfrwt>
<totfact> 0.36989562E+07</totfact>
</mgrwt>
</event>
<event>
 4    1  0.9374408E+003  0.4154997E+02  0.7546771E-02  0.1497105E+00
         21   -1    0    0  502  501  0.00000000000E+00  0.00000000000E+00  0.76200563896E+02  0.76200563896E+02  0.00000000000E+00 0.  1.
         21   -1    0    0  504  502 -0.00000000000E+00 -0.00000000000E+00 -0.38554661585E+02  0.38554661585E+02  0.00000000000E+00 0.  1.
         21    1    1    2  503  501  0.76603989007E+01 -0.40837710880E+02 -0.18022531024E+02  0.45290307636E+02  0.00000000000E+00 0.  1.
         21    1    1    2  504  503 -0.76603989007E+01  0.40837710880E+02  0.55668433335E+02  0.69464917845E+02  0.00000000000E+00 0.  1.
<mgrwt>
<rscale>  2 0.41549974E+02</rscale>
<asrwt>0</asrwt>
<pdfrwt beam="1">  1       21 0.11723164E-01 0.41549974E+02</pdfrwt>
<pdfrwt beam="2">  1       21 0.59314864E-02 0.41549974E+02</pdfrwt>
<totfact> 0.10719816E+07</totfact>
</mgrwt>
</event>
<event>
 4    1  0.9374408E+003  0.2358715E+02  0.7546771E-02  0.1682166E+00
         21   -1    0    0  504  501  0.00000000000E+00  0.00000000000E+00  0.75729411708E+01  0.75729411708E+01  0.00000000000E+00 0. -1.
         21   -1    0    0  501  502 -0.00000000000E+00 -0.00000000000E+00 -0.86961977373E+02  0.86961977373E+02  0.00000000000E+00 0. -1.
         21    1    1    2  503  502 -0.15822255296E+01 -0.23534026452E+02 -0.21073671464E+02  0.31629945742E+02  0.00000000000E+00 0. -1.
         21    1    1    2  504  503  0.15822255296E+01  0.23534026452E+02 -0.58315364738E+02  0.62904972802E+02  0.00000000000E+00 0. -1.
<mgrwt>
<rscale>  2 0.23587154E+02</rscale>
<asrwt>0</asrwt>
<pdfrwt beam="1">  1       21 0.11650679E-02 0.23587154E+02</pdfrwt>
<pdfrwt beam="2">  1       21 0.13378765E-01 0.23587154E+02</pdfrwt>
<totfact> 0.98224782E+07</totfact>
</mgrwt>
</event>
<event>
 4    1  0.9374408E+003  0.2358319E+02  0.7546771E-02  0.1682227E+00
         21   -1    0    0  502  501  0.00000000000E+00  0.00000000000E+00  0.30824605377E+02  0.30824605377E+02  0.00000000000E+00 0. -1.
         21   -1    0    0  503  502 -0.00000000000E+00 -0.00000000000E+00 -0.25390259968E+02  0.25390259968E+02  0.00000000000E+00 0. -1.
         21    1    1    2  503  504  0.23559128632E+02 -0.10650876772E+01 -0.12402822453E+02  0.26645768115E+02  0.00000000000E+00 0. -1.
         21    1    1    2  504  501 -0.23559128632E+02  0.10650876772E+01  0.17837167862E+02  0.29569097230E+02  0.00000000000E+00 0. -1.
<mgrwt>
<rscale>  2 0.23583192E+02</rscale>
<asrwt>0</asrwt>
<pdfrwt beam="1">  1       21 0.47422470E-02 0.23583192E+02</pdfrwt>
<pdfrwt beam="2">  1       21 0.39061939E-02 0.23583192E+02</pdfrwt>
<totfact> 0.83059293E+07</totfact>
</mgrwt>
</event>
<event>
 4    1  0.9374408E+003  0.3191283E+02  0.7546771E-02  0.1577859E+00
         21   -1    0    0  502  501  0.00000000000E+00  0.00000000000E+00  0.46779802392E+02  0.46779802392E+02  0.00000000000E+00 0.  1.
         21   -1    0    0  503  502 -0.00000000000E+00 -0.00000000000E+00 -0.36772362906E+02  0.36772362906E+02  0.00000000000E+00 0.  1.
         21    1    1    2  503  504 -0.19898074173E+01  0.31850732803E+02 -0.21679412600E+02  0.38580117215E+02  0.00000000000E+00 0.  1.
         21    1    1    2  504  501  0.19898074173E+01 -0.31850732803E+02  0.31686852086E+02  0.44972048083E+02  0.00000000000E+00 0.  1.
<mgrwt>
<rscale>  2 0.31912827E+02</rscale>
<asrwt>0</asrwt>
<pdfrwt beam="1">  1       21 0.71968927E-02 0.31912827E+02</pdfrwt>
<pdfrwt beam="2">  1       21 0.56572866E-02 0.31912827E+02</pdfrwt>
<totfact> 0.25116998E+07</totfact>
</mgrwt>
</event>
<event>
 4    1  0.9374408E+003  0.2442392E+02  0.7546771E-02  0.1669417E+00
         21   -1    0    0  503  501  0.00000000000E+00  0.00000000000E+00  0.47621467065E+01  0.47621467065E+01  0.00000000000E+00 0.  1.
         21   -1    0    0  501  502 -0.00000000000E+00 -0.00000000000E+00 -0.14198379910E+03  0.14198379910E+03  0.00000000000E+00 0.  1.
         21    1    1    2  503  504 -0.23643611614E+02 -0.61243512057E+01 -0.93789069243E+02  0.96917065357E+02  0.00000000000E+00 0.  1.
         21    1    1    2  504  502  0.23643611614E+02  0.61243512057E+01 -0.43432583154E+02  0.49828880453E+02  0.00000000000E+00 0.  1.
<mgrwt>
<rscale>  2 0.24423924E+02</rscale>
<asrwt>0</asrwt>
<pdfrwt beam="1">  1       21 0.73263807E-03 0.24423924E+02</pdfrwt>
<pdfrwt beam="2">  1       21 0.21843658E-01 0.24423924E+02</pdfrwt>
<totfact> 0.85405272E+07</totfact>
</mgrwt>
</event>
<event>
 4    1  0.9374408E+003  0.2004291E+02  0.7546771E-02  0.1744476E+00
         21   -1    0    0  504  501  0.00000000000E+00  0.00000000000E+00  0.65421302930E+01  0.65421302930E+01  0.00000000000E+00 0. -1.
         21   -1    0    0  501  502 -0.00000000000E+00 -0.00000000000E+00 -0.92560500866E+02  0.92560500866E+02  0.00000000000E+00 0. -1.
         21    1    1    2  503  502  0.39547623973E+01  0.19648868031E+02 -0.14260952787E+02  0.24598636851E+02  0.00000000000E+00 0.  1.
         21    1    1    2  504  503 -0.39547623973E+01 -0.19648868031E+02 -0.71757417786E+02  0.74503994308E+02  0.00000000000E+00 0.  1.
<mgrwt>
<rscale>  2 0.20042908E+02</rscale>
<asrwt>0</asrwt>
<pdfrwt beam="1">  1       21 0.10064816E-02 0.20042908E+02</pdfrwt>
<pdfrwt beam="2">  1       21 0.14240077E-01 0.20042908E+02</pdfrwt>
<totfact> 0.10511685E+08</totfact>
</mgrwt>
</event>
<event>
 4    1  0.9374408E+003  0.2113233E+02  0.7546771E-02  0.1723705E+00
         21   -1    0    0  502  501  0.00000000000E+00  0.00000000000E+00  0.85080532866E+01  0.85080532866E+01  0.00000000000E+00 0. -1.
         21   -1    0    0  504  502 -0.00000000000E+00 -0.00000000000E+00 -0.67573681585E+02  0.67573681585E+02  0.00000000000E+00 0. -1.
         21    1    1    2  503  501  0.19908772604E+02  0.70863455740E+01 -0.11559178415E+02  0.24087136107E+02  0.00000000000E+00 0.  1.
         21    1    1    2  504  503 -0.19908772604E+02 -0.70863455740E+01 -0.47506449884E+02  0.51994598765E+02  0.00000000000E+00 0.  1.
<mgrwt>
<rscale>  2 0.21132334E+02</rscale>
<asrwt>0</asrwt>
<pdfrwt beam="1">  1       21 0.13089312E-02 0.21132334E+02</pdfrwt>
<pdfrwt beam="2">  1       21 0.10395951E-01 0.21132334E+02</pdfrwt>
<totfact> 0.12165708E+08</totfact>
</mgrwt>
</event>
<event>
 4    1  0.9374408E+003  0.3689031E+02  0.7546771E-02  0.1532427E+00
         21   -1    0    0  502  501  0.00000000000E+00  0.00000000000E+00  0.32003884128E+01  0.32003884128E+01  0.00000000000E+00 0. -1.
         21   -1    0    0  504  502 -0.00000000000E+00 -0.00000000000E+00 -0.56034900300E+03  0.56034900300E+03  0.00000000000E+00 0. -1.
         21    1    1    2  503  501  0.97687145183E+01  0.35573407314E+02 -0.14020685213E+03  0.14497881389E+03  0.00000000000E+00 0.  1.
         21    1    1    2  504  503 -0.97687145183E+01 -0.35573407314E+02 -0.41694176245E+03  0.41857057752E+03  0.00000000000E+00 0.  1.
<mgrwt>
<rscale>  2 0.36890312E+02</rscale>
<asrwt>0</asrwt>
<pdfrwt beam="1">  1       21 0.49236747E-03 0.36890312E+02</pdfrwt>
<pdfrwt beam="2">  1       21 0.86207536E-01 0.36890312E+02</pdfrwt>
<totfact> 0.11675461E+07</totfact>
</mgrwt>
</event>
<event>
 4    1  0.9374408E+003  0.2362788E+02  0.7546771E-02  0.1681530E+00
         21   -1    0    0  502  501  0.00000000000E+00  0.00000000000E+00  0.67891107126E+01  0.67891107126E+01  0.00000000000E+00 0.  1.
         21   -1    0    0  503  502 -0.00000000000E+00 -0.00000000000E+00 -0.12870418374E+03  0.12870418374E+03  0.00000000000E+00 0.  1.
         21    1    1    2  503  504 -0.17877618755E+02 -0.15448860993E+02 -0.20248402419E+02  0.31117107174E+02  0.00000000000E+00 0. -1.
         21    1    1    2  504  501  0.17877618755E+02  0.15448860993E+02 -0.10166667061E+03  0.10437618728E+03  0.00000000000E+00 0. -1.
<mgrwt>
<rscale>  2 0.23627877E+02</rscale>
<asrwt>0</asrwt>
<pdfrwt beam="1">  1       21 0.10444786E-02 0.23627877E+02</pdfrwt>
<pdfrwt beam="2">  1       21 0.19800644E-01 0.23627877E+02</pdfrwt>
<totfact> 0.59121170E+07</totfact>
</mgrwt>
</event>
<event>
 4    1  0.9374408E+003  0.2386537E+02  0.7546771E-02  0.1677855E+00
         21   -1    0    0  504  501  0.00000000000E+00  0.00000000000E+00  0.21093857171E+02  0.21093857171E+02  0.00000000000E+00 0.  1.
         21   -1    0    0  501  502 -0.00000000000E+00 -0.00000000000E+00 -0.42009591034E+02  0.42009591034E+02  0.00000000000E+00 0.  1.
         21    1    1    2  503  502  0.23802242741E+02 -0.17347323272E+01  0.84011160875E+01  0.25300885504E+02  0.00000000000E+00 0. -1.
         21    1    1    2  504  503 -0.23802242741E+02  0.17347323272E+01 -0.29316849951E+02  0.37802562701E+02  0.00000000000E+00 0. -1.
<mgrwt>
<rscale>  2 0.23865374E+02</rscale>
<asrwt>0</asrwt>
<pdfrwt beam="1">  1       21 0.32452088E-02 0.23865374E+02</pdfrwt>
<pdfrwt beam="2">  1       21 0.64630139E-02 0.23865374E+02</pdfrwt>
<totfact> 0.67893890E+07</totfact>
</mgrwt>
</event>
<event>
 4    1  0.9374408E+003  0.2753836E+02  0.7546771E-02  0.1627010E+00
         21   -1    0    0  504  501  0.00000000000E+00  0.00000000000E+00  0.15286135260E+02  0.15286135260E+02  0.00000000000E+00 0. -1.
         21   -1    0    0  501  502 -0.00000000000E+00 -0.00000000000E+00 -0.12839027120E+03  0.12839027120E+03  0.00000000000E+00 0. -1.
         21    1    1    2  503  502 -0.17904051583E+02  0.20923815529E+02 -0.11282444531E+03  0.11613662893E+03  0.00000000000E+00 0. -1.
         21    1    1    2  504  503  0.17904051583E+02 -0.20923815529E+02 -0.27969062591E+00  0.27539777527E+02  0.00000000000E+00 0. -1.
<mgrwt>
<rscale>  2 0.27538357E+02</rscale>
<asrwt>0</asrwt>
<pdfrwt beam="1">  1       21 0.23517132E-02 0.27538357E+02</pdfrwt>
<pdfrwt beam="2">  1       21 0.19752349E-01 0.27538357E+02</pdfrwt>
<totfact> 0.17762998E+07</totfact>
</mgrwt>
</event>
<event>
 4    1  0.9374408E+003  0.2342527E+02  0.7546771E-02  0.1684708E+00
         21   -1    0    0  502  501  0.00000000000E+00  0.00000000000E+00  0.13251530796E+02  0.13251530796E+02  0.00000000000E+00 0.  1.
         21   -1    0    0  504  502 -0.00000000000E+00 -0.00000000000E+00 -0.82975841468E+02  0.82975841468E+02  0.00000000000E+00 0.  1.
         21    1    1    2  503  501 -0.58796995520E+01 -0.22675371332E+02 -0.68915681999E+02  0.72788148467E+02  0.00000000000E+00 0. -1.
         21    1    1    2  504  503  0.58796995520E+01  0.22675371332E+02 -0.80862867374E+00  0.23439223797E+02  0.00000000000E+00 0. -1.
<mgrwt>
<rscale>  2 0.23425271E+02</rscale>
<asrwt>0</asrwt>
<pdfrwt beam="1">  1       21 0.20386970E-02 0.23425271E+02</pdfrwt>
<pdfrwt beam="2">  1       21 0.12765514E-01 0.23425271E+02</pdfrwt>
<totfact> 0.45265507E+07</totfact>
</mgrwt>
</event>
<event>
 4    1  0.9374408E+003  0.2180451E+02  0.7546771E-02  0.1711655E+00
         21   -1    0    0  504  501  0.00000000000E+00  0.00000000000E+00  0.65823243684E+02  0.65823243684E+02  0.00000000000E+00 0. -1.
         21   -1    0    0  501  502 -0.00000000000E+00 -0.00000000000E+00 -0.75304527592E+01  0.75304527592E+01  0.00000000000E+00 0. -1.
         21    1    1    2  503  502  0.20669312766E+02  0.69437898469E+01  0.36558129292E+02  0.42566812484E+02  0.00000000000E+00 0. -1.
         21    1    1    2  504  503 -0.20669312766E+02 -0.69437898469E+01  0.21734661632E+02  0.30786883959E+02  0.00000000000E+00 0. -1.
<mgrwt>
<rscale>  2 0.21804511E+02</rscale>
<asrwt>0</asrwt>
<pdfrwt beam="1">  1       21 0.10126652E-01 0.21804511E+02</pdfrwt>
<pdfrwt beam="2">  1       21 0.11585312E-02 0.21804511E+02</pdfrwt>
<totfact> 0.15415126E+08</totfact>
</mgrwt>
</event>
<event>
 4    1  0.9374408E+003  0.2067096E+02  0.7546771E-02  0.1732305E+00
         21   -1    0    0  502  501  0.00000000000E+00  0.00000000000E+00  0.15708871720E+01  0.15708871720E+01  0.00000000000E+00 0. -1.
         21   -1    0    0  504  502 -0.00000000000E+00 -0.00000000000E+00 -0.43887834623E+03  0.43887834623E+03  0.00000000000E+00 0. -1.
         21    1    1    2  503  501  0.19124581622E+02  0.78446677121E+01 -0.35445001145E+03  0.35505224834E+03  0.00000000000E+00 0.  1.
         21    1    1    2  504  503 -0.19124581622E+02 -0.78446677121E+01 -0.82857447604E+02  0.85396985059E+02  0.00000000000E+00 0.  1.
<mgrwt>
<rscale>  2 0.20670956E+02</rscale>
<asrwt>0</asrwt>
<pdfrwt beam="1">  1       21 0.24167516E-03 0.20670956E+02</pdfrwt>
<pdfrwt beam="2">  1       21 0.67519687E-01 0.20670956E+02</pdfrwt>
<totfact> 0.49962117E+07</totfact>
</mgrwt>
</event>
<event>
 4    1  0.9374408E+003  0.2592193E+02  0.7546771E-02  0.1648102E+00
         21   -1    0    0  502  501  0.00000000000E+00  0.00000000000E+00  0.21641877315E+02  0.21641877315E+02  0.00000000000E+00 0. -1.
         21   -1    0    0  504  502 -0.00000000000E+00 -0.00000000000E+00 -0.49123922135E+02  0.49123922135E+02  0.00000000000E+00 0. -1.
         21    1    1    2  503  501 -0.65486505312E+01  0.25081096245E+02  0.77220566551E+01  0.27047668506E+02  0.00000000000E+00 0. -1.
         21    1    1    2  504  503  0.65486505312E+01 -0.25081096245E+02 -0.35204101474E+02  0.43718130944E+02  0.00000000000E+00 0. -1.
<mgrwt>
<rscale>  2 0.25921925E+02</rscale>
<asrwt>0</asrwt>
<pdfrwt beam="1">  1       21 0.33295196E-02 0.25921925E+02</pdfrwt>
<pdfrwt beam="2">  1       21 0.75575264E-02 0.25921925E+02</pdfrwt>
<totfact> 0.51641010E+07</totfact>
</mgrwt>
</event>
<event>
 4    1  0.9374408E+003  0.5798934E+02  0.7546771E-02  0.1406469E+00
         21   -1    0    0  502  501  0.00000000000E+00  0.00000000000E+00  0.57671195233E+02  0.57671195233E+02  0.00000000000E+00 0.  1.
         21   -1    0    0  504  502 -0.00000000000E+00 -0.00000000000E+00 -0.11869944356E+03  0.11869944356E+03  0.00000000000E+00 0.  1.
         21    1    1    2  503  501  0.38479288406E+02 -0.43383274143E+02 -0.93414778497E+02  0.10995037496E+03  0.00000000000E+00 0. -1.
         21    1    1    2  504  503 -0.38479288406E+02  0.43383274143E+02  0.32386530170E+02  0.66420263836E+02  0.00000000000E+00 0. -1.
<mgrwt>
<rscale>  2 0.57989345E+02</rscale>
<asrwt>0</asrwt>
<pdfrwt beam="1">  1       21 0.88724917E-02 0.57989345E+02</pdfrwt>
<pdfrwt beam="2">  1       21 0.18261453E-01 0.57989345E+02</pdfrwt>
<totfact> 0.26079625E+06</totfact>
</mgrwt>
</event>
<event>
 4    1  0.9374408E+003  0.2161038E+02  0.7546771E-02  0.1715079E+00
         21   -1    0    0  502  501  0.00000000000E+00  0.00000000000E+00  0.17131928794E+02  0.17131928794E+02  0.00000000000E+00 0. -1.
         21   -1    0    0  504  502 -0.00000000000E+00 -0.00000000000E+00 -0.68585173031E+02  0.68585173031E+02  0.00000000000E+00 0. -1.
         21    1    1    2  503  501  0.10900030205E+02  0.18660061937E+02 -0.58995036262E+02  0.62828519587E+02  0.00000000000E+00 0.  1.
         21    1    1    2  504  503 -0.10900030205E+02 -0.18660061937E+02  0.75417920243E+01  0.22888582238E+02  0.00000000000E+00 0.  1.
<mgrwt>
<rscale>  2 0.21610381E+02</rscale>
<asrwt>0</asrwt>
<pdfrwt beam="1">  1       21 0.26356813E-02 0.21610381E+02</pdfrwt>
<pdfrwt beam="2">  1       21 0.10551565E-01 0.21610381E+02</pdfrwt>
<totfact> 0.41026477E+07</totfact>
</mgrwt>
</event>
<event>
 4    1  0.9374408E+003  0.2172926E+02  0.7546771E-02  0.1712977E+00
         21   -1    0    0  503  501  0.00000000000E+00  0.00000000000E+00  0.15620977161E+01  0.15620977161E+01  0.00000000000E+00 0. -1.
         21   -1    0    0  501  502 -0.00000000000E+00 -0.00000000000E+00 -0.42287517103E+03  0.42287517103E+03  0.00000000000E+00 0. -1.
         21    1    1    2  503  504 -0.50472119388E+01 -0.21134951820E+02 -0.97318058914E+02  0.99714417852E+02  0.00000000000E+00 0.  1.
         21    1    1    2  504  502  0.50472119388E+01  0.21134951820E+02 -0.32399501440E+03  0.32472285090E+03  0.00000000000E+00 0.  1.
<mgrwt>
<rscale>  2 0.21729255E+02</rscale>
<asrwt>0</asrwt>
<pdfrwt beam="1">  1       21 0.24032262E-03 0.21729255E+02</pdfrwt>
<pdfrwt beam="2">  1       21 0.65057748E-01 0.21729255E+02</pdfrwt>
<totfact> 0.54956051E+07</totfact>
</mgrwt>
</event>
<event>
 4    1  0.9374408E+003  0.2234134E+02  0.7546771E-02  0.1702415E+00
         21   -1    0    0  502  501  0.00000000000E+00  0.00000000000E+00  0.13316619825E+02  0.13316619825E+02  0.00000000000E+00 0.  1.
         21   -1    0    0  503  502 -0.00000000000E+00 -0.00000000000E+00 -0.17237649219E+03  0.17237649219E+03  0.00000000000E+00 0.  1.
         21    1    1    2  503  504  0.19157273683E+02 -0.11494977262E+02 -0.16166406128E+03  0.16320050351E+03  0.00000000000E+00 0. -1.
         21    1    1    2  504  501 -0.19157273683E+02  0.11494977262E+02  0.26041889171E+01  0.22492608500E+02  0.00000000000E+00 0. -1.
<mgrwt>
<rscale>  2 0.22341344E+02</rscale>
<asrwt>0</asrwt>
<pdfrwt beam="1">  1       21 0.20487109E-02 0.22341344E+02</pdfrwt>
<pdfrwt beam="2">  1       21 0.26519458E-01 0.22341344E+02</pdfrwt>
<totfact> 0.12515440E+07</totfact>
</mgrwt>
</event>
<event>
 4    1  0.9374408E+003  0.2291943E+02  0.7546771E-02  0.1692819E+00
         21   -1    0    0  504  501  0.00000000000E+00  0.00000000000E+00  0.70444101745E+02  0.70444101745E+02  0.00000000000E+00 0.  1.
         21   -1    0    0  501  502 -0.00000000000E+00 -0.00000000000E+00 -0.12382584146E+02  0.12382584146E+02  0.00000000000E+00 0.  1.
         21    1    1    2  503  502 -0.18247872296E+02 -0.13867782202E+02  0.29112853579E+01  0.23103588660E+02  0.00000000000E+00 0.  1.
         21    1    1    2  504  503  0.18247872296E+02  0.13867782202E+02  0.55150232242E+02  0.59723097231E+02  0.00000000000E+00 0.  1.
<mgrwt>
<rscale>  2 0.22919429E+02</rscale>
<asrwt>0</asrwt>
<pdfrwt beam="1">  1       21 0.10837554E-01 0.22919429E+02</pdfrwt>
<pdfrwt beam="2">  1       21 0.19050130E-02 0.22919429E+02</pdfrwt>
<totfact> 0.65677029E+07</totfact>
</mgrwt>
</event>
<event>
 4    1  0.9374408E+003  0.2274904E+02  0.7546771E-02  0.1695611E+00
         21   -1    0    0  504  501  0.00000000000E+00  0.00000000000E+00  0.76248472677E+00  0.76248472677E+00  0.00000000000E+00 0.  1.
         21   -1    0    0  501  502 -0.00000000000E+00 -0.00000000000E+00 -0.85042855590E+03  0.85042855590E+03  0.00000000000E+00 0.  1.
         21    1    1    2  503  502 -0.95579455468E+01  0.20643751216E+02 -0.61606723009E+03  0.61648710512E+03  0.00000000000E+00 0. -1.
         21    1    1    2  504  503  0.95579455468E+01 -0.20643751216E+02 -0.23359884108E+03  0.23470393551E+03  0.00000000000E+00 0. -1.
<mgrwt>
<rscale>  2 0.22749039E+02</rscale>
<asrwt>0</asrwt>
<pdfrwt beam="1">  1       21 0.11730533E-03 0.22749039E+02</pdfrwt>
<pdfrwt beam="2">  1       21 0.13083517E+00 0.22749039E+02</pdfrwt>
<totfact> 0.34553286E+07</totfact>
</mgrwt>
</event>
<event>
 4    1  0.9374408E+003  0.3245167E+02  0.7546771E-02  0.1572469E+00
         21   -1    0    0  502  501  0.00000000000E+00  0.00000000000E+00  0.78209082298E+02  0.78209082298E+02  0.00000000000E+00 0.  1.
         21   -1    0    0  504  502 -0.00000000000E+00 -0.00000000000E+00 -0.25117879298E+02  0.25117879298E+02  0.00000000000E+00 0.  1.
         21    1    1    2  503  501 -0.25427119049E+02 -0.20163641499E+02  0.61734260763E+02  0.69744030379E+02  0.00000000000E+00 0.  1.
         21    1    1    2  504  503  0.25427119049E+02  0.20163641499E+02 -0.86430577622E+01  0.33582931217E+02  0.00000000000E+00 0.  1.
<mgrwt>
<rscale>  2 0.32451669E+02</rscale>
<asrwt>0</asrwt>
<pdfrwt beam="1">  1       21 0.12032166E-01 0.32451669E+02</pdfrwt>
<pdfrwt beam="2">  1       21 0.38642892E-02 0.32451669E+02</pdfrwt>
<totfact> 0.19717342E+07</totfact>
</mgrwt>
</event>
<event>
 4    1  0.9374408E+003  0.2232452E+02  0.7546771E-02  0.1702699E+00
         21   -1    0    0  504  501  0.00000000000E+00  0.00000000000E+00  0.20233680079E+02  0.20233680079E+02  0.00000000000E+00 0. -1.
         21   -1    0    0  501  502 -0.00000000000E+00 -0.00000000000E+00 -0.28059739538E+02  0.28059739538E+02  0.00000000000E+00 0. -1.
         21    1    1    2  503  502  0.22007588612E+02  0.37483898023E+01 -0.12353301800E+02  0.25514475264E+02  0.00000000000E+00 0.  1.
         21    1    1    2  504  503 -0.22007588612E+02 -0.37483898023E+01  0.45272423416E+01  0.22778944353E+02  0.00000000000E+00 0.  1.
<mgrwt>
<rscale>  2 0.22324524E+02</rscale>
<asrwt>0</asrwt>
<pdfrwt beam="1">  1       21 0.31128739E-02 0.22324524E+02</pdfrwt>
<pdfrwt beam="2">  1       21 0.43168830E-02 0.22324524E+02</pdfrwt>
<totfact> 0.13538626E+08</totfact>
</mgrwt>
</event>
<event>
 4    1  0.9374408E+003  0.2378439E+02  0.7546771E-02  0.1679102E+00
         21   -1    0    0  504  501  0.00000000000E+00  0.00000000000E+00  0.68202831540E+00  0.68202831540E+00  0.00000000000E+00 0.  1.
         21   -1    0    0  501  502 -0.00000000000E+00 -0.00000000000E+00 -0.10243611051E+04  0.10243611051E+04  0.00000000000E+00 0.  1.
         21    1    1    2  503  502 -0.15843704895E+02  0.17739060907E+02 -0.28826514563E+03  0.28924469131E+03  0.00000000000E+00 0. -1.
         21    1    1    2  504  503  0.15843704895E+02 -0.17739060907E+02 -0.73541393116E+03  0.73579844211E+03  0.00000000000E+00 0. -1.
<mgrwt>
<rscale>  2 0.23784391E+02</rscale>
<asrwt>0</asrwt>
<pdfrwt beam="1">  1       21 0.10492815E-03 0.23784391E+02</pdfrwt>
<pdfrwt beam="2">  1       21 0.15759295E+00 0.23784391E+02</pdfrwt>
<totfact> 0.26375682E+07</totfact>
</mgrwt>
</event>
<event>
 4    1  0.9374408E+003  0.2889953E+02  0.7546771E-02  0.1610581E+00
         21   -1    0    0  502  501  0.00000000000E+00  0.00000000000E+00  0.44207056727E+02  0.44207056727E+02  0.00000000000E+00 0.  1.
         21   -1    0    0  503  502 -0.00000000000E+00 -0.00000000000E+00 -0.27345067157E+02  0.27345067157E+02  0.00000000000E+00 0.  1.
         21    1    1    2  503  504 -0.28840326946E+02  0.18489409722E+01 -0.11459548321E+02  0.31088652090E+02  0.00000000000E+00 0.  1.
         21    1    1    2  504  501  0.28840326946E+02 -0.18489409722E+01  0.28321537892E+02  0.40463471794E+02  0.00000000000E+00 0.  1.
<mgrwt>
<rscale>  2 0.28899534E+02</rscale>
<asrwt>0</asrwt>
<pdfrwt beam="1">  1       21 0.68010856E-02 0.28899534E+02</pdfrwt>
<pdfrwt beam="2">  1       21 0.42069334E-02 0.28899534E+02</pdfrwt>
<totfact> 0.43464925E+07</totfact>
</mgrwt>
</event>
<event>
 4    1  0.9374408E+003  0.4919269E+02  0.7546771E-02  0.1449745E+00
         21   -1    0    0  504  501  0.00000000000E+00  0.00000000000E+00  0.16138862451E+03  0.16138862451E+03  0.00000000000E+00 0.  1.
         21   -1    0    0  501  502 -0.00000000000E+00 -0.00000000000E+00 -0.18337857631E+02  0.18337857631E+02  0.00000000000E+00 0.  1.
         21    1    1    2  503  502 -0.21072098133E+02  0.44450957044E+02  0.10989677762E+03  0.12040441284E+03  0.00000000000E+00 0.  1.
         21    1    1    2  504  503  0.21072098133E+02 -0.44450957044E+02  0.33153989267E+02  0.59322069301E+02  0.00000000000E+00 0.  1.
<mgrwt>
<rscale>  2 0.49192692E+02</rscale>
<asrwt>0</asrwt>
<pdfrwt beam="1">  1       21 0.24829018E-01 0.49192692E+02</pdfrwt>
<pdfrwt beam="2">  1       21 0.28212090E-02 0.49192692E+02</pdfrwt>
<totfact> 0.96558585E+06</totfact>
</mgrwt>
</event>
<event>
 4    1  0.9374408E+003  0.2559692E+02  0.7546771E-02  0.1652573E+00
         21   -1    0    0  504  501  0.00000000000E+00  0.00000000000E+00  0.55058809516E+01  0.55058809516E+01  0.00000000000E+00 0. -1.
         21   -1    0    0  501  502 -0.00000000000E+00 -0.00000000000E+00 -0.17125000186E+03  0.17125000186E+03  0.00000000000E+00 0. -1.
         21    1    1    2  503  502 -0.24457974112E+02 -0.75504728056E+01 -0.13168893884E+03  0.13415356406E+03  0.00000000000E+00 0.  1.
         21    1    1    2  504  503  0.24457974112E+02  0.75504728056E+01 -0.34055182068E+02  0.42602318751E+02  0.00000000000E+00 0.  1.
<mgrwt>
<rscale>  2 0.25596917E+02</rscale>
<asrwt>0</asrwt>
<pdfrwt beam="1">  1       21 0.84705866E-03 0.25596917E+02</pdfrwt>
<pdfrwt beam="2">  1       21 0.26346153E-01 0.25596917E+02</pdfrwt>
<totfact> 0.49775167E+07</totfact>
</mgrwt>
</event>
<event>
 4    1  0.9374408E+003  0.4574549E+02  0.7546771E-02  0.1469741E+00
         21   -1    0    0  504  501  0.00000000000E+00  0.00000000000E+00  0.63103185233E+03  0.63103185233E+03  0.00000000000E+00 0. -1.
         21   -1    0    0  501  502 -0.00000000000E+00 -0.00000000000E+00 -0.45237128574E+01  0.45237128574E+01  0.00000000000E+00 0. -1.
         21    1    1    2  503  502  0.11010496798E+02  0.44400662643E+02  0.47743231589E+03  0.47961887592E+03  0.00000000000E+00 0. -1.
         21    1    1    2  504  503 -0.11010496798E+02 -0.44400662643E+02  0.14907582359E+03  0.15593668927E+03  0.00000000000E+00 0. -1.
<mgrwt>
<rscale>  2 0.45745490E+02</rscale>
<asrwt>0</asrwt>
<pdfrwt beam="1">  1       21 0.97081754E-01 0.45745490E+02</pdfrwt>
<pdfrwt beam="2">  1       21 0.69595632E-03 0.45745490E+02</pdfrwt>
<totfact> 0.54562665E+06</totfact>
</mgrwt>
</event>
<event>
 4    1  0.9374408E+003  0.2427482E+02  0.7546771E-02  0.1671642E+00
         21   -1    0    0  503  501  0.00000000000E+00  0.00000000000E+00  0.24861322597E+01  0.24861322597E+01  0.00000000000E+00 0.  1.
         21   -1    0    0  501  502 -0.00000000000E+00 -0.00000000000E+00 -0.26239241640E+03  0.26239241640E+03  0.00000000000E+00 0.  1.
         21    1    1    2  503  504  0.84634320053E+01 -0.22751638750E+02 -0.88770955375E+02  0.92030154109E+02  0.00000000000E+00 0. -1.
         21    1    1    2  504  502 -0.84634320053E+01  0.22751638750E+02 -0.17113532877E+03  0.17284839455E+03  0.00000000000E+00 0. -1.
<mgrwt>
<rscale>  2 0.24274817E+02</rscale>
<asrwt>0</asrwt>
<pdfrwt beam="1">  1       21 0.38248190E-03 0.24274817E+02</pdfrwt>
<pdfrwt beam="2">  1       21 0.40368063E-01 0.24274817E+02</pdfrwt>
<totfact> 0.72823537E+07</totfact>
</mgrwt>
</event>
<event>
 4    1  0.9374408E+003  0.2448930E+02  0.7546771E-02  0.1668447E+00
         21   -1    0    0  504  501  0.00000000000E+00  0.00000000000E+00  0.18240373345E+03  0.18240373345E+03  0.00000000000E+00 0. -1.
         21   -1    0    0  501  502 -0.00000000000E+00 -0.00000000000E+00 -0.81125460121E+01  0.81125460121E+01  0.00000000000E+00 0. -1.
         21    1    1    2  503  502 -0.14385491369E+02 -0.19818769142E+02  0.16060646159E+03  0.16246280029E+03  0.00000000000E+00 0. -1.
         21    1    1    2  504  503  0.14385491369E+02  0.19818769142E+02  0.13684725843E+02  0.28053479172E+02  0.00000000000E+00 0. -1.
<mgrwt>
<rscale>  2 0.24489303E+02</rscale>
<asrwt>0</asrwt>
<pdfrwt beam="1">  1       21 0.28062110E-01 0.24489303E+02</pdfrwt>
<pdfrwt beam="2">  1       21 0.12480841E-02 0.24489303E+02</pdfrwt>
<totfact> 0.24524558E+07</totfact>
</mgrwt>
</event>
<event>
 4    1  0.9374408E+003  0.2129456E+02  0.7546771E-02  0.1720746E+00
         21   -1    0    0  504  501  0.00000000000E+00  0.00000000000E+00  0.18210732836E+01  0.18210732836E+01  0.00000000000E+00 0. -1.
         21   -1    0    0  501  502 -0.00000000000E+00 -0.00000000000E+00 -0.39239057625E+03  0.39239057625E+03  0.00000000000E+00 0. -1.
         21    1    1    2  503  502 -0.20640309447E+02 -0.52379259785E+01 -0.31443400773E+03  0.31515425343E+03  0.00000000000E+00 0.  1.
         21    1    1    2  504  503  0.20640309447E+02  0.52379259785E+01 -0.76135495242E+02  0.79057396102E+02  0.00000000000E+00 0.  1.
<mgrwt>
<rscale>  2 0.21294559E+02</rscale>
<asrwt>0</asrwt>
<pdfrwt beam="1">  1       21 0.28016484E-03 0.21294559E+02</pdfrwt>
<pdfrwt beam="2">  1       21 0.60367842E-01 0.21294559E+02</pdfrwt>
<totfact> 0.50886683E+07</totfact>
</mgrwt>
</event>
<event>
 4    1  0.9374408E+003  0.2185956E+02  0.7546771E-02  0.1710692E+00
         21   -1    0    0  502  501  0.00000000000E+00  0.00000000000E+00  0.77010608595E+02  0.77010608595E+02  0.00000000000E+00 0.  1.
         21   -1    0    0  503  502 -0.00000000000E+00 -0.00000000000E+00 -0.24832944302E+02  0.24832944302E+02  0.00000000000E+00 0.  1.
         21    1    1    2  503  504  0.68528098133E+01  0.20757629190E+02 -0.18014714662E+02  0.28326138394E+02  0.00000000000E+00 0.  1.
         21    1    1    2  504  501 -0.68528098133E+01 -0.20757629190E+02  0.70192378955E+02  0.73517414504E+02  0.00000000000E+00 0.  1.
<mgrwt>
<rscale>  2 0.21859556E+02</rscale>
<asrwt>0</asrwt>
<pdfrwt beam="1">  1       21 0.11847786E-01 0.21859556E+02</pdfrwt>
<pdfrwt beam="2">  1       21 0.38204530E-02 0.21859556E+02</pdfrwt>
<totfact> 0.19033344E+07</totfact>
</mgrwt>
</event>
<event>
 4    1  0.9374408E+003  0.2408012E+02  0.7546771E-02  0.1674577E+00
         21   -1    0    0  502  501  0.00000000000E+00  0.00000000000E+00  0.16032245265E+02  0.16032245265E+02  0.00000000000E+00 0.  1.
         21   -1    0    0  504  502 -0.00000000000E+00 -0.00000000000E+00 -0.17085757010E+03  0.17085757010E+03  0.00000000000E+00 0.  1.
         21    1    1    2  503  501  0.12824734045E+01  0.24045942777E+02  0.55544023049E+01  0.24712415646E+02  0.00000000000E+00 0.  1.
         21    1    1    2  504  503 -0.12824734045E+01 -0.24045942777E+02 -0.16037972714E+03  0.16217739972E+03  0.00000000000E+00 0.  1.
<mgrwt>
<rscale>  2 0.24080118E+02</rscale>
<asrwt>0</asrwt>
<pdfrwt beam="1">  1       21 0.24664993E-02 0.24080118E+02</pdfrwt>
<pdfrwt beam="2">  1       21 0.26285780E-01 0.24080118E+02</pdfrwt>
<totfact> 0.96917916E+06</totfact>
</mgrwt>
</event>
<event>
 4    1  0.9374408E+003  0.2766246E+02  0.7546771E-02  0.1625464E+00
         21   -1    0    0  502  501  0.00000000000E+00  0.00000000000E+00  0.13313726648E+02  0.13313726648E+02  0.00000000000E+00 0.  1.
         21   -1    0    0  504  502 -0.00000000000E+00 -0.00000000000E+00 -0.60205401155E+02  0.60205401155E+02  0.00000000000E+00 0.  1.
         21    1    1    2  503  501 -0.16223291517E+02  0.22405719040E+02 -0.31273570508E+02  0.41752217254E+02  0.00000000000E+00 0. -1.
         21    1    1    2  504  503  0.16223291517E+02 -0.22405719040E+02 -0.15618104000E+02  0.31766910550E+02  0.00000000000E+00 0. -1.
<mgrwt>
<rscale>  2 0.27662455E+02</rscale>
<asrwt>0</asrwt>
<pdfrwt beam="1">  1       21 0.20482656E-02 0.27662455E+02</pdfrwt>
<pdfrwt beam="2">  1       21 0.92623696E-02 0.27662455E+02</pdfrwt>
<totfact> 0.80024832E+07</totfact>
</mgrwt>
</event>
<event>
 4    1  0.9374408E+003  0.2079756E+02  0.7546771E-02  0.1729918E+00
         21   -1    0    0  504  501  0.00000000000E+00  0.00000000000E+00  0.18817502804E+03  0.18817502804E+03  0.00000000000E+00 0. -1.
         21   -1    0    0  501  502 -0.00000000000E+00 -0.00000000000E+00 -0.43055092359E+01  0.43055092359E+01  0.00000000000E+00 0. -1.
         21    1    1    2  503  502 -0.18212613368E+02 -0.10041864148E+02  0.15764134331E+03  0.15900733141E+03  0.00000000000E+00 0. -1.
         21    1    1    2  504  503  0.18212613368E+02  0.10041864148E+02  0.26228175495E+02  0.33473205868E+02  0.00000000000E+00 0. -1.
<mgrwt>
<rscale>  2 0.20797556E+02</rscale>
<asrwt>0</asrwt>
<pdfrwt beam="1">  1       21 0.28949998E-01 0.20797556E+02</pdfrwt>
<pdfrwt beam="2">  1       21 0.66238618E-03 0.20797556E+02</pdfrwt>
<totfact> 0.57568185E+07</totfact>
</mgrwt>
</event>
<event>
 4    1  0.9374408E+003  0.2793352E+02  0.7546771E-02  0.1622122E+00
         21   -1    0    0  504  501  0.00000000000E+00  0.00000000000E+00  0.91304659201E+01  0.91304659201E+01  0.00000000000E+00 0.  1.
         21   -1    0    0  501  502 -0.00000000000E+00 -0.00000000000E+00 -0.97224860916E+02  0.97224860916E+02  0.00000000000E+00 0.  1.
         21    1    1    2  503  502 -0.34841123446E+00 -0.27931347338E+02 -0.25548110999E+02  0.37854821756E+02  0.00000000000E+00 0. -1.
         21    1    1    2  504  503  0.34841123446E+00  0.27931347338E+02 -0.62546283997E+02  0.68500505081E+02  0.00000000000E+00 0. -1.
<mgrwt>
<rscale>  2 0.27933520E+02</rscale>
<asrwt>0</asrwt>
<pdfrwt beam="1">  1       21 0.14046871E-02 0.27933520E+02</pdfrwt>
<pdfrwt beam="2">  1       21 0.14957671E-01 0.27933520E+02</pdfrwt>
<totfact> 0.63832274E+07</totfact>
</mgrwt>
</event>
<event>
 4    1  0.9374408E+003  0.2337999E+02  0.7546771E-02  0.1685424E+00
         21   -1    0    0  502  501  0.00000000000E+00  0.00000000000E+00  0.42047711019E+01  0.42047711019E+01  0.00000000000E+00 0. -1.
         21   -1    0    0  503  502 -0.00000000000E+00 -0.00000000000E+00 -0.15617210048E+03  0.15617210048E+03  0.00000000000E+00 0. -1.
         21    1    1    2  503  504 -0.16836402013E+02  0.16222190295E+02 -0.10880997786E+03  0.11129346419E+03  0.00000000000E+00 0. -1.
         21    1    1    2  504  501  0.16836402013E+02 -0.16222190295E+02 -0.43157351525E+02  0.49083407393E+02  0.00000000000E+00 0. -1.
<mgrwt>
<rscale>  2 0.23379989E+02</rscale>
<asrwt>0</asrwt>
<pdfrwt beam="1">  1       21 0.64688786E-03 0.23379989E+02</pdfrwt>
<pdfrwt beam="2">  1       21 0.24026477E-01 0.23379989E+02</pdfrwt>
<totfact> 0.85840190E+07</totfact>
</mgrwt>
</event>
<event>
 4    1  0.9374408E+003  0.2609153E+02  0.7546771E-02  0.1645801E+00
         21   -1    0    0  503  501  0.00000000000E+00  0.00000000000E+00  0.54377800609E+01  0.54377800609E+01  0.00000000000E+00 0. -1.
         21   -1    0    0  501  502 -0.00000000000E+00 -0.00000000000E+00 -0.17160394720E+03  0.17160394720E+03  0.00000000000E+00 0. -1.
         21    1    1    2  503  504 -0.21631569092E+02 -0.14589147605E+02 -0.12911887934E+03  0.13172870990E+03  0.00000000000E+00 0. -1.
         21    1    1    2  504  502  0.21631569092E+02  0.14589147605E+02 -0.37047287791E+02  0.45313017355E+02  0.00000000000E+00 0. -1.
<mgrwt>
<rscale>  2 0.26091531E+02</rscale>
<asrwt>0</asrwt>
<pdfrwt beam="1">  1       21 0.83658146E-03 0.26091531E+02</pdfrwt>
<pdfrwt beam="2">  1       21 0.26400610E-01 0.26091531E+02</pdfrwt>
<totfact> 0.50745749E+07</totfact>
</mgrwt>
</event>
<event>
 4    1  0.9374408E+003  0.2226674E+02  0.7546771E-02  0.1703679E+00
         21   -1    0    0  502  501  0.00000000000E+00  0.00000000000E+00  0.56299778396E+02  0.56299778396E+02  0.00000000000E+00 0.  1.
         21   -1    0    0  503  502 -0.00000000000E+00 -0.00000000000E+00 -0.43119358579E+02  0.43119358579E+02  0.00000000000E+00 0.  1.
         21    1    1    2  503  504  0.20468465806E+02 -0.87663829389E+01  0.50933906780E+02  0.55588401867E+02  0.00000000000E+00 0. -1.
         21    1    1    2  504  501 -0.20468465806E+02  0.87663829389E+01 -0.37753486963E+02  0.43830735108E+02  0.00000000000E+00 0. -1.
<mgrwt>
<rscale>  2 0.22266737E+02</rscale>
<asrwt>0</asrwt>
<pdfrwt beam="1">  1       21 0.86615043E-02 0.22266737E+02</pdfrwt>
<pdfrwt beam="2">  1       21 0.66337475E-02 0.22266737E+02</pdfrwt>
<totfact> 0.13335855E+07</totfact>
</mgrwt>
</event>
<event>
 4    1  0.9374408E+003  0.2265926E+02  0.7546771E-02  0.1697094E+00
         21   -1    0    0  502  501  0.00000000000E+00  0.00000000000E+00  0.77299226757E+01  0.77299226757E+01  0.00000000000E+00 0.  1.
         21   -1    0    0  503  502 -0.00000000000E+00 -0.00000000000E+00 -0.11299522539E+03  0.11299522539E+03  0.00000000000E+00 0.  1.
         21    1    1    2  503  504 -0.93655576878E+01  0.20633184776E+02 -0.91385426629E+02  0.94152738595E+02  0.00000000000E+00 0. -1.
         21    1    1    2  504  501  0.93655576878E+01 -0.20633184776E+02 -0.13879876081E+02  0.26572409466E+02  0.00000000000E+00 0. -1.
<mgrwt>
<rscale>  2 0.22659258E+02</rscale>
<asrwt>0</asrwt>
<pdfrwt beam="1">  1       21 0.11892189E-02 0.22659258E+02</pdfrwt>
<pdfrwt beam="2">  1       21 0.17383881E-01 0.22659258E+02</pdfrwt>
<totfact> 0.60269449E+07</totfact>
</mgrwt>
</event>
<event>
 4    1  0.9374408E+003  0.2002384E+02  0.7546771E-02  0.1744854E+00
         21   -1    0    0  502  501  0.00000000000E+00  0.00000000000E+00  0.67935593430E+01  0.67935593430E+01  0.00000000000E+00 0. -1.
         21   -1    0    0  504  502 -0.00000000000E+00 -0.00000000000E+00 -0.97097644701E+02  0.97097644701E+02  0.00000000000E+00 0. -1.
         21    1    1    2  503  501  0.65526981830E+01 -0.18921321582E+02 -0.12622285231E+02  0.23670157336E+02  0.00000000000E+00 0. -1.
         21    1    1    2  504  503 -0.65526981830E+01  0.18921321582E+02 -0.77681800127E+02  0.80221046708E+02  0.00000000000E+00 0. -1.
<mgrwt>
<rscale>  2 0.20023842E+02</rscale>
<asrwt>0</asrwt>
<pdfrwt beam="1">  1       21 0.10451631E-02 0.20023842E+02</pdfrwt>
<pdfrwt beam="2">  1       21 0.14938098E-01 0.20023842E+02</pdfrwt>
<totfact> 0.91612346E+07</totfact>
</mgrwt>
</event>
<event>
 4    1  0.9374408E+003  0.2497280E+02  0.7546771E-02  0.1661393E+00
         21   -1    0    0  504  501  0.00000000000E+00  0.00000000000E+00  0.36291526597E+02  0.36291526597E+02  0.00000000000E+00 0. -1.
         21   -1    0    0  501  502 -0.00000000000E+00 -0.00000000000E+00 -0.32596173534E+02  0.32596173534E+02  0.00000000000E+00 0. -1.
         21    1    1    2  503  502  0.24514055636E+02 -0.47646181236E+01 -0.21836464551E+02  0.33173358191E+02  0.00000000000E+00 0.  1.
         21    1    1    2  504  503 -0.24514055636E+02  0.47646181236E+01  0.25531817613E+02  0.35714341940E+02  0.00000000000E+00 0.  1.
<mgrwt>
<rscale>  2 0.24972795E+02</rscale>
<asrwt>0</asrwt>
<pdfrwt beam="1">  1       21 0.55833118E-02 0.24972795E+02</pdfrwt>
<pdfrwt beam="2">  1       21 0.50147959E-02 0.24972795E+02</pdfrwt>
<totfact> 0.43695196E+07</totfact>
</mgrwt>
</event>
<event>
 4    1  0.9374408E+003  0.3379734E+02  0.7546771E-02  0.1559547E+00
         21   -1    0    0  502  501  0.00000000000E+00  0.00000000000E+00  0.52172114534E+01  0.52172114534E+01  0.00000000000E+00 0. -1.
         21   -1    0    0  504  502 -0.00000000000E+00 -0.00000000000E+00 -0.42533581773E+03  0.42533581773E+03  0.00000000000E+00 0. -1.
         21    1    1    2  503  501 -0.21398710341E+02  0.26160190260E+02 -0.36002098353E+03  0.36160388402E+03  0.00000000000E+00 0. -1.
         21    1    1    2  504  503  0.21398710341E+02 -0.26160190260E+02 -0.60097622755E+02  0.68949145168E+02  0.00000000000E+00 0. -1.
<mgrwt>
<rscale>  2 0.33797342E+02</rscale>
<asrwt>0</asrwt>
<pdfrwt beam="1">  1       21 0.80264763E-03 0.33797342E+02</pdfrwt>
<pdfrwt beam="2">  1       21 0.65436303E-01 0.33797342E+02</pdfrwt>
<totfact> 0.99099345E+06</totfact>
</mgrwt>
</event>
<event>
 4    1  0.9374408E+003  0.2240747E+02  0.7546771E-02  0.1701299E+00
         21   -1    0    0  502  501  0.00000000000E+00  0.00000000000E+00  0.69675631368E+02  0.69675631368E+02  0.00000000000E+00 0.  1.
         21   -1    0    0  503  502 -0.00000000000E+00 -0.00000000000E+00 -0.20110182238E+02  0.20110182238E+02  0.00000000000E+00 0.  1.
         21    1    1    2  503  504 -0.14581098571E+02  0.17014295153E+02  0.60743748665E+02  0.64744866028E+02  0.00000000000E+00 0. -1.
         21    1    1    2  504  501  0.14581098571E+02 -0.17014295153E+02 -0.11178299535E+02  0.25040947578E+02  0.00000000000E+00 0. -1.
<mgrwt>
<rscale>  2 0.22407469E+02</rscale>
<asrwt>0</asrwt>
<pdfrwt beam="1">  1       21 0.10719328E-01 0.22407469E+02</pdfrwt>
<pdfrwt beam="2">  1       21 0.30938742E-02 0.22407469E+02</pdfrwt>
<totfact> 0.31448799E+07</totfact>
</mgrwt>
</event>
<event>
 4    1  0.9374408E+003  0.2028182E+02  0.7546771E-02  0.1739781E+00
         21   -1    0    0  502  501  0.00000000000E+00  0.00000000000E+00  0.31820746706E+01  0.31820746706E+01  0.00000000000E+00 0. -1.
         21   -1    0    0  504  502 -0.00000000000E+00 -0.00000000000E+00 -0.17402187062E+03  0.17402187062E+03  0.00000000000E+00 0. -1.
         21    1    1    2  503  501  0.18473883665E+02 -0.83706500455E+01 -0.40489642590E+02  0.45285354331E+02  0.00000000000E+00 0.  1.
         21    1    1    2  504  503 -0.18473883665E+02  0.83706500455E+01 -0.13035015336E+03  0.13191859096E+03  0.00000000000E+00 0.  1.
<mgrwt>
<rscale>  2 0.20281818E+02</rscale>
<asrwt>0</asrwt>
<pdfrwt beam="1">  1       21 0.48954998E-03 0.20281818E+02</pdfrwt>
<pdfrwt beam="2">  1       21 0.26772594E-01 0.20281818E+02</pdfrwt>
<totfact> 0.10273470E+08</totfact>
</mgrwt>
</event>
<event>
 4    1  0.9374408E+003  0.2051487E+02  0.7546771E-02  0.1735279E+00
         21   -1    0    0  502  501  0.00000000000E+00  0.00000000000E+00  0.24304809470E+01  0.24304809470E+01  0.00000000000E+00 0.  1.
         21   -1    0    0  504  502 -0.00000000000E+00 -0.00000000000E+00 -0.46263949197E+03  0.46263949197E+03  0.00000000000E+00 0.  1.
         21    1    1    2  503  501  0.18873798367E+02 -0.80398659962E+01 -0.41404467658E+03  0.41455259487E+03  0.00000000000E+00 0.  1.
         21    1    1    2  504  503 -0.18873798367E+02  0.80398659962E+01 -0.46164334440E+02  0.50517378043E+02  0.00000000000E+00 0.  1.
<mgrwt>
<rscale>  2 0.20514866E+02</rscale>
<asrwt>0</asrwt>
<pdfrwt beam="1">  1       21 0.37392001E-03 0.20514866E+02</pdfrwt>
<pdfrwt beam="2">  1       21 0.71175332E-01 0.20514866E+02</pdfrwt>
<totfact> 0.23773198E+07</totfact>
</mgrwt>
</event>
<event>
 4    1  0.9374408E+003  0.2156275E+02  0.7546771E-02  0.1715926E+00
         21   -1    0    0  502  501  0.00000000000E+00  0.00000000000E+00  0.72838674045E+01  0.72838674045E+01  0.00000000000E+00 0.  1.
         21   -1    0    0  504  502 -0.00000000000E+00 -0.00000000000E+00 -0.25206018172E+03  0.25206018172E+03  0.00000000000E+00 0.  1.
         21    1    1    2  503  501 -0.14559350619E+02  0.15905268928E+02 -0.23444416726E+03  0.23543368458E+03  0.00000000000E+00 0. -1.
         21    1    1    2  504  503  0.14559350619E+02 -0.15905268928E+02 -0.10332147055E+02  0.23910364550E+02  0.00000000000E+00 0. -1.
<mgrwt>
<rscale>  2 0.21562752E+02</rscale>
<asrwt>0</asrwt>
<pdfrwt beam="1">  1       21 0.11205949E-02 0.21562752E+02</pdfrwt>
<pdfrwt beam="2">  1       21 0.38778491E-01 0.21562752E+02</pdfrwt>
<totfact> 0.15493513E+07</totfact>
</mgrwt>
</event>
<event>
 4    1  0.9374408E+003  0.2137142E+02  0.7546771E-02  0.1719355E+00
         21   -1    0    0  502  501  0.00000000000E+00  0.00000000000E+00  0.16181571632E+03  0.16181571632E+03  0.00000000000E+00 0. -1.
         21   -1    0    0  504  502 -0.00000000000E+00 -0.00000000000E+00 -0.31662267468E+01  0.31662267468E+01  0.00000000000E+00 0. -1.
         21    1    1    2  503  501  0.18160831392E+02  0.11265964305E+02  0.10650113370E+03  0.10862425709E+03  0.00000000000E+00 0. -1.
         21    1    1    2  504  503 -0.18160831392E+02 -0.11265964305E+02  0.52148355872E+02  0.56357685977E+02  0.00000000000E+00 0. -1.
<mgrwt>
<rscale>  2 0.21371424E+02</rscale>
<asrwt>0</asrwt>
<pdfrwt beam="1">  1       21 0.24894719E-01 0.21371424E+02</pdfrwt>
<pdfrwt beam="2">  1       21 0.48711193E-03 0.21371424E+02</pdfrwt>
<totfact> 0.11956274E+08</totfact>
</mgrwt>
</event>
<event>
 4    1  0.9374408E+003  0.2798166E+02  0.7546771E-02  0.1621534E+00
         21   -1    0    0  502  501  0.00000000000E+00  0.00000000000E+00  0.76785589362E+02  0.76785589362E+02  0.00000000000E+00 0. -1.
         21   -1    0    0  503  502 -0.00000000000E+00 -0.00000000000E+00 -0.16686738198E+02  0.16686738198E+02  0.00000000000E+00 0. -1.
         21    1    1    2  503  504  0.27143185232E+02  0.67986004537E+01  0.90302528443E+00  0.27996230592E+02  0.00000000000E+00 0. -1.
         21    1    1    2  504  501 -0.27143185232E+02 -0.67986004537E+01  0.59195825879E+02  0.65476096969E+02  0.00000000000E+00 0. -1.
<mgrwt>
<rscale>  2 0.27981663E+02</rscale>
<asrwt>0</asrwt>
<pdfrwt beam="1">  1       21 0.11813167E-01 0.27981663E+02</pdfrwt>
<pdfrwt beam="2">  1       21 0.25671905E-02 0.27981663E+02</pdfrwt>
<totfact> 0.37627985E+07</totfact>
</mgrwt>
</event>
<event>
 4    1  0.9374408E+003  0.2095762E+02  0.7546771E-02  0.1726929E+00
         21   -1    0    0  503  501  0.00000000000E+00  0.00000000000E+00  0.17421765072E+02  0.17421765072E+02  0.00000000000E+00 0. -1.
         21   -1    0    0  501  502 -0.00000000000E+00 -0.00000000000E+00 -0.51370507643E+02  0.51370507643E+02  0.00000000000E+00 0. -1.
         21    1    1    2  503  504 -0.97858997162E+01 -0.18532622811E+02  0.75708328216E+01  0.22283165195E+02  0.00000000000E+00 0. -1.
         21    1    1    2  504  502  0.97858997162E+01  0.18532622811E+02 -0.41519575392E+02  0.46509107519E+02  0.00000000000E+00 0. -1.
<mgrwt>
<rscale>  2 0.20957623E+02</rscale>
<asrwt>0</asrwt>
<pdfrwt beam="1">  1       21 0.26802716E-02 0.20957623E+02</pdfrwt>
<pdfrwt beam="2">  1       21 0.79031550E-02 0.20957623E+02</pdfrwt>
<totfact> 0.63689901E+07</totfact>
</mgrwt>
</event>
<event>
 4    1  0.9374408E+003  0.2116828E+02  0.7546771E-02  0.1723046E+00
         21   -1    0    0  502  501  0.00000000000E+00  0.00000000000E+00  0.17929107613E+02  0.17929107613E+02  0.00000000000E+00 0.  1.
         21   -1    0    0  504  502 -0.00000000000E+00 -0.00000000000E+00 -0.52415268846E+02  0.52415268846E+02  0.00000000000E+00 0.  1.
         21    1    1    2  503  501 -0.57500501900E+01  0.20372353986E+02 -0.42683540373E+02  0.47644312388E+02  0.00000000000E+00 0. -1.
         21    1    1    2  504  503  0.57500501900E+01 -0.20372353986E+02  0.81973791397E+01  0.22700064072E+02  0.00000000000E+00 0. -1.
<mgrwt>
<rscale>  2 0.21168275E+02</rscale>
<asrwt>0</asrwt>
<pdfrwt beam="1">  1       21 0.27583243E-02 0.21168275E+02</pdfrwt>
<pdfrwt beam="2">  1       21 0.80638874E-02 0.21168275E+02</pdfrwt>
<totfact> 0.59124707E+07</totfact>
</mgrwt>
</event>
<event>
 4    1  0.9374408E+003  0.2020305E+02  0.7546771E-02  0.1741320E+00
         21   -1    0    0  502  501  0.00000000000E+00  0.00000000000E+00  0.46091457483E+03  0.46091457483E+03  0.00000000000E+00 0. -1.
         21   -1    0    0  504  502 -0.00000000000E+00 -0.00000000000E+00 -0.13076979928E+01  0.13076979928E+01  0.00000000000E+00 0. -1.
         21    1    1    2  503  501 -0.12562021722E+02 -0.15822734380E+02  0.98493060923E+02  0.10054375348E+03  0.00000000000E+00 0.  1.
         21    1    1    2  504  503  0.12562021722E+02  0.15822734380E+02  0.36111381591E+03  0.36167851934E+03  0.00000000000E+00 0.  1.
<mgrwt>
<rscale>  2 0.20203052E+02</rscale>
<asrwt>0</asrwt>
<pdfrwt beam="1">  1       21 0.70909805E-01 0.20203052E+02</pdfrwt>
<pdfrwt beam="2">  1       21 0.20118467E-03 0.20203052E+02</pdfrwt>
<totfact> 0.58570081E+07</totfact>
</mgrwt>
</event>
<event>
 4    1  0.9374408E+003  0.2325827E+02  0.7546771E-02  0.1687357E+00
         21   -1    0    0  502  501  0.00000000000E+00  0.00000000000E+00  0.16466160552E+03  0.16466160552E+03  0.00000000000E+00 0.  1.
         21   -1    0    0  503  502 -0.00000000000E+00 -0.00000000000E+00 -0.63254816461E+01  0.63254816461E+01  0.00000000000E+00 0.  1.
         21    1    1    2  503  504  0.21164316362E+02  0.96446320092E+01  0.19896955602E+02  0.30607777702E+02  0.00000000000E+00 0. -1.
         21    1    1    2  504  501 -0.21164316362E+02 -0.96446320092E+01  0.13843916827E+03  0.14037930946E+03  0.00000000000E+00 0. -1.
<mgrwt>
<rscale>  2 0.23258272E+02</rscale>
<asrwt>0</asrwt>
<pdfrwt beam="1">  1       21 0.25332551E-01 0.23258272E+02</pdfrwt>
<pdfrwt beam="2">  1       21 0.97315115E-03 0.23258272E+02</pdfrwt>
<totfact> 0.42397051E+07</totfact>
</mgrwt>
</event>
<event>
 4    1  0.9374408E+003  0.2091491E+02  0.7546771E-02  0.1727723E+00
         21   -1    0    0  503  501  0.00000000000E+00  0.00000000000E+00  0.12635554493E+02  0.12635554493E+02  0.00000000000E+00 0. -1.
         21   -1    0    0  501  502 -0.00000000000E+00 -0.00000000000E+00 -0.47568115769E+02  0.47568115769E+02  0.00000000000E+00 0. -1.
         21    1    1    2  503  504 -0.17872274137E+02 -0.10863482574E+02 -0.17608141384E+01  0.20988899516E+02  0.00000000000E+00 0. -1.
         21    1    1    2  504  502  0.17872274137E+02  0.10863482574E+02 -0.33171747139E+02  0.39214770746E+02  0.00000000000E+00 0. -1.
<mgrwt>
<rscale>  2 0.20914909E+02</rscale>
<asrwt>0</asrwt>
<pdfrwt beam="1">  1       21 0.19439314E-02 0.20914909E+02</pdfrwt>
<pdfrwt beam="2">  1       21 0.73181719E-02 0.20914909E+02</pdfrwt>
<totfact> 0.11808894E+08</totfact>
</mgrwt>
</event>
<event>
 4    1  0.9374408E+003  0.2112110E+02  0.7546771E-02  0.1723911E+00
         21   -1    0    0  504  501  0.00000000000E+00  0.00000000000E+00  0.62730077235E+02  0.62730077235E+02  0.00000000000E+00 0.  1.
         21   -1    0    0  501  502 -0.00000000000E+00 -0.00000000000E+00 -0.18485966010E+02  0.18485966010E+02  0.00000000000E+00 0.  1.
         21    1    1    2  503  502  0.20663521587E+02  0.43726177596E+01 -0.97314688933E+01  0.23255158508E+02  0.00000000000E+00 0. -1.
         21    1    1    2  504  503 -0.20663521587E+02 -0.43726177596E+01  0.53975580118E+02  0.57960884737E+02  0.00000000000E+00 0. -1.
<mgrwt>
<rscale>  2 0.21121101E+02</rscale>
<asrwt>0</asrwt>
<pdfrwt beam="1">  1       21 0.96507810E-02 0.21121101E+02</pdfrwt>
<pdfrwt beam="2">  1       21 0.28439948E-02 0.21121101E+02</pdfrwt>
<totfact> 0.42010238E+07</totfact>
</mgrwt>
</event>
<event>
 4    1  0.9374408E+003  0.2020382E+02  0.7546771E-02  0.1741305E+00
         21   -1    0    0  503  501  0.00000000000E+00  0.00000000000E+00  0.48704023438E+02  0.48704023438E+02  0.00000000000E+00 0.  1.
         21   -1    0    0  501  502 -0.00000000000E+00 -0.00000000000E+00 -0.21002653333E+02  0.21002653333E+02  0.00000000000E+00 0.  1.
         21    1    1    2  503  504 -0.19794535386E+02  0.40460839696E+01 -0.13167943638E+02  0.24116159858E+02  0.00000000000E+00 0. -1.
         21    1    1    2  504  502  0.19794535386E+02 -0.40460839696E+01  0.40869313743E+02  0.45590516914E+02  0.00000000000E+00 0. -1.
<mgrwt>
<rscale>  2 0.20203822E+02</rscale>
<asrwt>0</asrwt>
<pdfrwt beam="1">  1       21 0.74929267E-02 0.20203822E+02</pdfrwt>
<pdfrwt beam="2">  1       21 0.32311774E-02 0.20203822E+02</pdfrwt>
<totfact> 0.51460872E+07</totfact>
</mgrwt>
</event>
<event>
 4    1  0.9374408E+003  0.3896840E+02  0.7546771E-02  0.1515943E+00
         21   -1    0    0  502  501  0.00000000000E+00  0.00000000000E+00  0.17655906517E+02  0.17655906517E+02  0.00000000000E+00 0.  1.
         21   -1    0    0  504  502 -0.00000000000E+00 -0.00000000000E+00 -0.18703040718E+03  0.18703040718E+03  0.00000000000E+00 0.  1.
         21    1    1    2  503  501  0.38172052650E+02 -0.78377897375E+01 -0.94707545481E+01  0.40102764782E+02  0.00000000000E+00 0. -1.
         21    1    1    2  504  503 -0.38172052650E+02  0.78377897375E+01 -0.15990374611E+03  0.16458354891E+03  0.00000000000E+00 0. -1.
<mgrwt>
<rscale>  2 0.38968405E+02</rscale>
<asrwt>0</asrwt>
<pdfrwt beam="1">  1       21 0.27162935E-02 0.38968405E+02</pdfrwt>
<pdfrwt beam="2">  1       21 0.28773907E-01 0.38968405E+02</pdfrwt>
<totfact> 0.75994687E+06</totfact>
</mgrwt>
</event>
<event>
 4    1  0.9374408E+003  0.2747001E+02  0.7546771E-02  0.1627865E+00
         21   -1    0    0  502  501  0.00000000000E+00  0.00000000000E+00  0.17234283137E+02  0.17234283137E+02  0.00000000000E+00 0. -1.
         21   -1    0    0  503  502 -0.00000000000E+00 -0.00000000000E+00 -0.18827577499E+03  0.18827577499E+03  0.00000000000E+00 0. -1.
         21    1    1    2  503  504  0.64202635842E+01  0.26709206755E+02 -0.17553806245E+03  0.17767445759E+03  0.00000000000E+00 0.  1.
         21    1    1    2  504  501 -0.64202635842E+01 -0.26709206755E+02  0.44965706027E+01  0.27835600535E+02  0.00000000000E+00 0.  1.
<mgrwt>
<rscale>  2 0.27470011E+02</rscale>
<asrwt>0</asrwt>
<pdfrwt beam="1">  1       21 0.26514283E-02 0.27470011E+02</pdfrwt>
<pdfrwt beam="2">  1       21 0.28965502E-01 0.27470011E+02</pdfrwt>
<totfact> 0.74262205E+06</totfact>
</mgrwt>
</event>
<event>
 4    1  0.9374408E+003  0.2153671E+02  0.7546771E-02  0.1716390E+00
         21   -1    0    0  502  501  0.00000000000E+00  0.00000000000E+00  0.14444468966E+02  0.14444468966E+02  0.00000000000E+00 0.  1.
         21   -1    0    0  504  502 -0.00000000000E+00 -0.00000000000E+00 -0.74601936853E+02  0.74601936853E+02  0.00000000000E+00 0.  1.
         21    1    1    2  503  501  0.87708676461E+01  0.19669814800E+02 -0.63680205797E+02  0.67223495475E+02  0.00000000000E+00 0. -1.
         21    1    1    2  504  503 -0.87708676461E+01 -0.19669814800E+02  0.35227379096E+01  0.21822910345E+02  0.00000000000E+00 0. -1.
<mgrwt>
<rscale>  2 0.21536707E+02</rscale>
<asrwt>0</asrwt>
<pdfrwt beam="1">  1       21 0.22222260E-02 0.21536707E+02</pdfrwt>
<pdfrwt beam="2">  1       21 0.11477221E-01 0.21536707E+02</pdfrwt>
<totfact> 0.46371340E+07</totfact>
</mgrwt>
</event>
<event>
 4    1  0.9374408E+003  0.2225597E+02  0.7546771E-02  0.1703862E+00
         21   -1    0    0  502  501  0.00000000000E+00  0.00000000000E+00  0.21306841311E+03  0.21306841311E+03  0.00000000000E+00 0.  1.
         21   -1    0    0  503  502 -0.00000000000E+00 -0.00000000000E+00 -0.23632322769E+01  0.23632322769E+01  0.00000000000E+00 0.  1.
         21    1    1    2  503  504 -0.15197756118E+02  0.16259037468E+02  0.11910023356E+03  0.12116184929E+03  0.00000000000E+00 0.  1.
         21    1    1    2  504  501  0.15197756118E+02 -0.16259037468E+02  0.91604947278E+02  0.94269796097E+02  0.00000000000E+00 0.  1.
<mgrwt>
<rscale>  2 0.22255968E+02</rscale>
<asrwt>0</asrwt>
<pdfrwt beam="1">  1       21 0.32779741E-01 0.22255968E+02</pdfrwt>
<pdfrwt beam="2">  1       21 0.36357436E-03 0.22255968E+02</pdfrwt>
<totfact> 0.11299795E+08</totfact>
</mgrwt>
</event>
<event>
 4    1  0.9374408E+003  0.2013441E+02  0.7546771E-02  0.1742668E+00
         21   -1    0    0  503  501  0.00000000000E+00  0.00000000000E+00  0.13722234491E+03  0.13722234491E+03  0.00000000000E+00 0. -1.
         21   -1    0    0  501  502 -0.00000000000E+00 -0.00000000000E+00 -0.32573067746E+01  0.32573067746E+01  0.00000000000E+00 0. -1.
         21    1    1    2  503  504 -0.18900688056E+02  0.69396361926E+01  0.45559155951E+02  0.49809951320E+02  0.00000000000E+00 0.  1.
         21    1    1    2  504  502  0.18900688056E+02 -0.69396361926E+01  0.88405882182E+02  0.90669700363E+02  0.00000000000E+00 0.  1.
<mgrwt>
<rscale>  2 0.20134412E+02</rscale>
<asrwt>0</asrwt>
<pdfrwt beam="1">  1       21 0.21111126E-01 0.20134412E+02</pdfrwt>
<pdfrwt beam="2">  1       21 0.50112422E-03 0.20134412E+02</pdfrwt>
<totfact> 0.15061819E+08</totfact>
</mgrwt>
</event>
<event>
 4    1  0.9374408E+003  0.2115122E+02  0.7546771E-02  0.1723358E+00
         21   -1    0    0  503  501  0.00000000000E+00  0.00000000000E+00  0.10485111116E+02  0.10485111116E+02  0.00000000000E+00 0. -1.
         21   -1    0    0  501  502 -0.00000000000E+00 -0.00000000000E+00 -0.83268382383E+02  0.83268382383E+02  0.00000000000E+00 0. -1.
         21    1    1    2  503  504  0.43638255528E+01  0.20696166387E+02 -0.36587171412E+01  0.21465332229E+02  0.00000000000E+00 0. -1.
         21    1    1    2  504  502 -0.43638255528E+01 -0.20696166387E+02 -0.69124554126E+02  0.72288161269E+02  0.00000000000E+00 0. -1.
<mgrwt>
<rscale>  2 0.21151224E+02</rscale>
<asrwt>0</asrwt>
<pdfrwt beam="1">  1       21 0.16130940E-02 0.21151224E+02</pdfrwt>
<pdfrwt beam="2">  1       21 0.12810520E-01 0.21151224E+02</pdfrwt>
<totfact> 0.62653415E+07</totfact>
</mgrwt>
</event>
<event>
 4    1  0.9374408E+003  0.2030237E+02  0.7546771E-02  0.1739381E+00
         21   -1    0    0  503  501  0.00000000000E+00  0.00000000000E+00  0.19852327903E+02  0.19852327903E+02  0.00000000000E+00 0.  1.
         21   -1    0    0  501  502 -0.00000000000E+00 -0.00000000000E+00 -0.24783911650E+02  0.24783911650E+02  0.00000000000E+00 0.  1.
         21    1    1    2  503  504  0.37628018532E+01  0.19950626952E+02 -0.11455712623E+02  0.23311360863E+02  0.00000000000E+00 0. -1.
         21    1    1    2  504  502 -0.37628018532E+01 -0.19950626952E+02  0.65241288759E+01  0.21324878691E+02  0.00000000000E+00 0. -1.
<mgrwt>
<rscale>  2 0.20302369E+02</rscale>
<asrwt>0</asrwt>
<pdfrwt beam="1">  1       21 0.30542043E-02 0.20302369E+02</pdfrwt>
<pdfrwt beam="2">  1       21 0.38129095E-02 0.20302369E+02</pdfrwt>
<totfact> 0.16459569E+08</totfact>
</mgrwt>
</event>
<event>
 4    1  0.9374408E+003  0.2577635E+02  0.7546771E-02  0.1650095E+00
         21   -1    0    0  502  501  0.00000000000E+00  0.00000000000E+00  0.14190558171E+03  0.14190558171E+03  0.00000000000E+00 0. -1.
         21   -1    0    0  503  502 -0.00000000000E+00 -0.00000000000E+00 -0.12127053485E+02  0.12127053485E+02  0.00000000000E+00 0. -1.
         21    1    1    2  503  504  0.17398948762E+02  0.19018324017E+02  0.45450984045E+01  0.26173994459E+02  0.00000000000E+00 0. -1.
         21    1    1    2  504  501 -0.17398948762E+02 -0.19018324017E+02  0.12523342982E+03  0.12785864074E+03  0.00000000000E+00 0. -1.
<mgrwt>
<rscale>  2 0.25776347E+02</rscale>
<asrwt>0</asrwt>
<pdfrwt beam="1">  1       21 0.21831627E-01 0.25776347E+02</pdfrwt>
<pdfrwt beam="2">  1       21 0.18657006E-02 0.25776347E+02</pdfrwt>
<totfact> 0.21021665E+07</totfact>
</mgrwt>
</event>
<event>
 4    1  0.9374408E+003  0.2163928E+02  0.7546771E-02  0.1714566E+00
         21   -1    0    0  504  501  0.00000000000E+00  0.00000000000E+00  0.27098916478E+01  0.27098916478E+01  0.00000000000E+00 0.  1.
         21   -1    0    0  501  502 -0.00000000000E+00 -0.00000000000E+00 -0.29303399091E+03  0.29303399091E+03  0.00000000000E+00 0.  1.
         21    1    1    2  503  502  0.13027686184E+02  0.17278247087E+02 -0.23988334635E+03  0.24085738163E+03  0.00000000000E+00 0.  1.
         21    1    1    2  504  503 -0.13027686184E+02 -0.17278247087E+02 -0.50440752912E+02  0.54886500927E+02  0.00000000000E+00 0.  1.
<mgrwt>
<rscale>  2 0.21639280E+02</rscale>
<asrwt>0</asrwt>
<pdfrwt beam="1">  1       21 0.41690651E-03 0.21639280E+02</pdfrwt>
<pdfrwt beam="2">  1       21 0.45082141E-01 0.21639280E+02</pdfrwt>
<totfact> 0.50574252E+07</totfact>
</mgrwt>
</event>
<event>
 4    1  0.9374408E+003  0.5780980E+02  0.7546771E-02  0.1407260E+00
         21   -1    0    0  502  501  0.00000000000E+00  0.00000000000E+00  0.25308602080E+03  0.25308602080E+03  0.00000000000E+00 0.  1.
         21   -1    0    0  504  502 -0.00000000000E+00 -0.00000000000E+00 -0.19894688917E+02  0.19894688917E+02  0.00000000000E+00 0.  1.
         21    1    1    2  503  501 -0.56969498849E+02 -0.98208603716E+01  0.19574366033E+03  0.20410182179E+03  0.00000000000E+00 0. -1.
         21    1    1    2  504  503  0.56969498849E+02  0.98208603716E+01  0.37447671552E+02  0.68878887928E+02  0.00000000000E+00 0. -1.
<mgrwt>
<rscale>  2 0.57809801E+02</rscale>
<asrwt>0</asrwt>
<pdfrwt beam="1">  1       21 0.38936309E-01 0.57809801E+02</pdfrwt>
<pdfrwt beam="2">  1       21 0.30607216E-02 0.57809801E+02</pdfrwt>
<totfact> 0.36819018E+06</totfact>
</mgrwt>
</event>
<event>
 4    1  0.9374408E+003  0.2403991E+02  0.7546771E-02  0.1675188E+00
         21   -1    0    0  504  501  0.00000000000E+00  0.00000000000E+00  0.29273315379E+01  0.29273315379E+01  0.00000000000E+00 0. -1.
         21   -1    0    0  501  502 -0.00000000000E+00 -0.00000000000E+00 -0.29319954127E+03  0.29319954127E+03  0.00000000000E+00 0. -1.
         21    1    1    2  503  502  0.96569910643E+01  0.22014987996E+02 -0.60510859770E+02  0.65111299503E+02  0.00000000000E+00 0. -1.
         21    1    1    2  504  503 -0.96569910643E+01 -0.22014987996E+02 -0.22976134997E+03  0.23101557331E+03  0.00000000000E+00 0. -1.
<mgrwt>
<rscale>  2 0.24039908E+02</rscale>
<asrwt>0</asrwt>
<pdfrwt beam="1">  1       21 0.45035864E-03 0.24039908E+02</pdfrwt>
<pdfrwt beam="2">  1       21 0.45107628E-01 0.24039908E+02</pdfrwt>
<totfact> 0.46246054E+07</totfact>
</mgrwt>
</event>
<event>
 4    1  0.9374408E+003  0.2185034E+02  0.7546771E-02  0.1710853E+00
         21   -1    0    0  503  501  0.00000000000E+00  0.00000000000E+00  0.37194342681E+02  0.37194342681E+02  0.00000000000E+00 0. -1.
         21   -1    0    0  501  502 -0.00000000000E+00 -0.00000000000E+00 -0.28163716711E+02  0.28163716711E+02  0.00000000000E+00 0. -1.
         21    1    1    2  503  504 -0.14082612093E+02  0.16706812392E+02  0.28623176660E+02  0.36010051177E+02  0.00000000000E+00 0. -1.
         21    1    1    2  504  502  0.14082612093E+02 -0.16706812392E+02 -0.19592550690E+02  0.29348008215E+02  0.00000000000E+00 0. -1.
<mgrwt>
<rscale>  2 0.21850344E+02</rscale>
<asrwt>0</asrwt>
<pdfrwt beam="1">  1       21 0.57222066E-02 0.21850344E+02</pdfrwt>
<pdfrwt beam="2">  1       21 0.43328795E-02 0.21850344E+02</pdfrwt>
<totfact> 0.51203734E+07</totfact>
</mgrwt>
</event>
<event>
 4    1  0.9374408E+003  0.2137750E+02  0.7546771E-02  0.1719246E+00
         21   -1    0    0  502  501  0.00000000000E+00  0.00000000000E+00  0.14352982025E+03  0.14352982025E+03  0.00000000000E+00 0. -1.
         21   -1    0    0  504  502 -0.00000000000E+00 -0.00000000000E+00 -0.44687485689E+01  0.44687485689E+01  0.00000000000E+00 0. -1.
         21    1    1    2  503  501 -0.17805180172E+02 -0.11831024013E+02  0.10920812292E+03  0.11128077858E+03  0.00000000000E+00 0. -1.
         21    1    1    2  504  503  0.17805180172E+02  0.11831024013E+02  0.29852948762E+02  0.36717790237E+02  0.00000000000E+00 0. -1.
<mgrwt>
<rscale>  2 0.21377501E+02</rscale>
<asrwt>0</asrwt>
<pdfrwt beam="1">  1       21 0.22081507E-01 0.21377501E+02</pdfrwt>
<pdfrwt beam="2">  1       21 0.68749989E-03 0.21377501E+02</pdfrwt>
<totfact> 0.88845637E+07</totfact>
</mgrwt>
</event>
<event>
 4    1  0.9374408E+003  0.2475942E+02  0.7546771E-02  0.1664482E+00
         21   -1    0    0  502  501  0.00000000000E+00  0.00000000000E+00  0.49953484150E+01  0.49953484150E+01  0.00000000000E+00 0. -1.
         21   -1    0    0  503  502 -0.00000000000E+00 -0.00000000000E+00 -0.13898443313E+03  0.13898443313E+03  0.00000000000E+00 0. -1.
         21    1    1    2  503  504  0.97410098073E+01  0.22762720481E+02 -0.91621404593E+02  0.94907905336E+02  0.00000000000E+00 0. -1.
         21    1    1    2  504  501 -0.97410098073E+01 -0.22762720481E+02 -0.42367680125E+02  0.49071876212E+02  0.00000000000E+00 0. -1.
<mgrwt>
<rscale>  2 0.24759417E+02</rscale>
<asrwt>0</asrwt>
<pdfrwt beam="1">  1       21 0.76851514E-03 0.24759417E+02</pdfrwt>
<pdfrwt beam="2">  1       21 0.21382221E-01 0.24759417E+02</pdfrwt>
<totfact> 0.82851456E+07</totfact>
</mgrwt>
</event>
<event>
 4    1  0.9374408E+003  0.2201712E+02  0.7546771E-02  0.1707956E+00
         21   -1    0    0  502  501  0.00000000000E+00  0.00000000000E+00  0.17975293630E+03  0.17975293630E+03  0.00000000000E+00 0.  1.
         21   -1    0    0  503  502 -0.00000000000E+00 -0.00000000000E+00 -0.42020785751E+01  0.42020785751E+01  0.00000000000E+00 0.  1.
         21    1    1    2  503  504  0.19380712203E+02 -0.10447091093E+02  0.32724937144E+02  0.39442048995E+02  0.00000000000E+00 0.  1.
         21    1    1    2  504  501 -0.19380712203E+02  0.10447091093E+02  0.14282592058E+03  0.14451296588E+03  0.00000000000E+00 0.  1.
<mgrwt>
<rscale>  2 0.22017123E+02</rscale>
<asrwt>0</asrwt>
<pdfrwt beam="1">  1       21 0.27654292E-01 0.22017123E+02</pdfrwt>
<pdfrwt beam="2">  1       21 0.64647377E-03 0.22017123E+02</pdfrwt>
<totfact> 0.65774874E+07</totfact>
</mgrwt>
</event>
<event>
 4    1  0.9374408E+003  0.2140596E+02  0.7546771E-02  0.1718733E+00
         21   -1    0    0  504  501  0.00000000000E+00  0.00000000000E+00  0.35912492976E+02  0.35912492976E+02  0.00000000000E+00 0. -1.
         21   -1    0    0  501  502 -0.00000000000E+00 -0.00000000000E+00 -0.20089345907E+02  0.20089345907E+02  0.00000000000E+00 0. -1.
         21    1    1    2  503  502 -0.21216599752E+02 -0.28409889920E+01 -0.90023815497E+01  0.23221933534E+02  0.00000000000E+00 0.  1.
         21    1    1    2  504  503  0.21216599752E+02  0.28409889920E+01  0.24825528618E+02  0.32779905349E+02  0.00000000000E+00 0.  1.
<mgrwt>
<rscale>  2 0.21405965E+02</rscale>
<asrwt>0</asrwt>
<pdfrwt beam="1">  1       21 0.55249989E-02 0.21405965E+02</pdfrwt>
<pdfrwt beam="2">  1       21 0.30906686E-02 0.21405965E+02</pdfrwt>
<totfact> 0.91400602E+07</totfact>
</mgrwt>
</event>
<event>
 4    1  0.9374408E+003  0.2097129E+02  0.7546771E-02  0.1726675E+00
         21   -1    0    0  503  501  0.00000000000E+00  0.00000000000E+00  0.41539298879E+01  0.41539298879E+01  0.00000000000E+00 0. -1.
         21   -1    0    0  501  502 -0.00000000000E+00 -0.00000000000E+00 -0.14351740928E+03  0.14351740928E+03  0.00000000000E+00 0. -1.
         21    1    1    2  503  504 -0.20214449751E+02 -0.55831099381E+01 -0.10749601048E+03  0.10952254272E+03  0.00000000000E+00 0. -1.
         21    1    1    2  504  502  0.20214449751E+02  0.55831099381E+01 -0.31867468908E+02  0.38148796441E+02  0.00000000000E+00 0. -1.
<mgrwt>
<rscale>  2 0.20971292E+02</rscale>
<asrwt>0</asrwt>
<pdfrwt beam="1">  1       21 0.63906618E-03 0.20971292E+02</pdfrwt>
<pdfrwt beam="2">  1       21 0.22079600E-01 0.20971292E+02</pdfrwt>
<totfact> 0.98485571E+07</totfact>
</mgrwt>
</event>
<event>
 4    1  0.9374408E+003  0.2290331E+02  0.7546771E-02  0.1693082E+00
         21   -1    0    0  502  501  0.00000000000E+00  0.00000000000E+00  0.56090671188E+02  0.56090671188E+02  0.00000000000E+00 0. -1.
         21   -1    0    0  504  502 -0.00000000000E+00 -0.00000000000E+00 -0.14554015178E+02  0.14554015178E+02  0.00000000000E+00 0. -1.
         21    1    1    2  503  501  0.19988526390E+02 -0.11181254349E+02 -0.34917924168E+00  0.22905972195E+02  0.00000000000E+00 0.  1.
         21    1    1    2  504  503 -0.19988526390E+02  0.11181254349E+02  0.41885835251E+02  0.47738714172E+02  0.00000000000E+00 0.  1.
<mgrwt>
<rscale>  2 0.22903311E+02</rscale>
<asrwt>0</asrwt>
<pdfrwt beam="1">  1       21 0.86293339E-02 0.22903311E+02</pdfrwt>
<pdfrwt beam="2">  1       21 0.22390793E-02 0.22903311E+02</pdfrwt>
<totfact> 0.74623973E+07</totfact>
</mgrwt>
</event>
<event>
 4    1  0.9374408E+003  0.2001590E+02  0.7546771E-02  0.1745012E+00
         21   -1    0    0  504  501  0.00000000000E+00  0.00000000000E+00  0.22961327947E+03  0.22961327947E+03  0.00000000000E+00 0.  1.
         21   -1    0    0  501  502 -0.00000000000E+00 -0.00000000000E+00 -0.30662822784E+01  0.30662822784E+01  0.00000000000E+00 0.  1.
         21    1    1    2  503  502 -0.16495517621E+02  0.11337284107E+02  0.18964792042E+03  0.19070125808E+03  0.00000000000E+00 0.  1.
         21    1    1    2  504  503  0.16495517621E+02 -0.11337284107E+02  0.36899076768E+02  0.41978303668E+02  0.00000000000E+00 0.  1.
<mgrwt>
<rscale>  2 0.20015896E+02</rscale>
<asrwt>0</asrwt>
<pdfrwt beam="1">  1       21 0.35325106E-01 0.20015896E+02</pdfrwt>
<pdfrwt beam="2">  1       21 0.47173592E-03 0.20015896E+02</pdfrwt>
<totfact> 0.65362052E+07</totfact>
</mgrwt>
</event>
<event>
 4    1  0.9374408E+003  0.2985698E+02  0.7546771E-02  0.1599675E+00
         21   -1    0    0  503  501  0.00000000000E+00  0.00000000000E+00  0.98920915623E+02  0.98920915623E+02  0.00000000000E+00 0. -1.
         21   -1    0    0  501  502 -0.00000000000E+00 -0.00000000000E+00 -0.12829672322E+02  0.12829672322E+02  0.00000000000E+00 0. -1.
         21    1    1    2  503  504 -0.25602364606E+02  0.15360939651E+02  0.73526811751E+02  0.79357618328E+02  0.00000000000E+00 0.  1.
         21    1    1    2  504  502  0.25602364606E+02 -0.15360939651E+02  0.12564431549E+02  0.32392969616E+02  0.00000000000E+00 0.  1.
<mgrwt>
<rscale>  2 0.29856985E+02</rscale>
<asrwt>0</asrwt>
<pdfrwt beam="1">  1       21 0.15218602E-01 0.29856985E+02</pdfrwt>
<pdfrwt beam="2">  1       21 0.19737958E-02 0.29856985E+02</pdfrwt>
<totfact> 0.37282666E+07</totfact>
</mgrwt>
</event>
<event>
 4    1  0.9374408E+003  0.2785044E+02  0.7546771E-02  0.1623142E+00
         21   -1    0    0  502  501  0.00000000000E+00  0.00000000000E+00  0.44444301928E+01  0.44444301928E+01  0.00000000000E+00 0.  1.
         21   -1    0    0  504  502 -0.00000000000E+00 -0.00000000000E+00 -0.34803101350E+03  0.34803101350E+03  0.00000000000E+00 0.  1.
         21    1    1    2  503  501 -0.27782357814E+02 -0.19462318101E+01 -0.29623098076E+03  0.29753729377E+03  0.00000000000E+00 0. -1.
         21    1    1    2  504  503  0.27782357814E+02  0.19462318101E+01 -0.47355602548E+02  0.54938149921E+02  0.00000000000E+00 0. -1.
<mgrwt>
<rscale>  2 0.27850444E+02</rscale>
<asrwt>0</asrwt>
<pdfrwt beam="1">  1       21 0.68375844E-03 0.27850444E+02</pdfrwt>
<pdfrwt beam="2">  1       21 0.53543237E-01 0.27850444E+02</pdfrwt>
<totfact> 0.18348781E+07</totfact>
</mgrwt>
</event>
<event>
 4    1  0.9374408E+003  0.2248098E+02  0.7546771E-02  0.1700064E+00
         21   -1    0    0  502  501  0.00000000000E+00  0.00000000000E+00  0.14857369373E+03  0.14857369373E+03  0.00000000000E+00 0. -1.
         21   -1    0    0  504  502 -0.00000000000E+00 -0.00000000000E+00 -0.50139744028E+01  0.50139744028E+01  0.00000000000E+00 0. -1.
         21    1    1    2  503  501  0.21647357051E+02 -0.60651718413E+01  0.28232411320E+02  0.36089658154E+02  0.00000000000E+00 0. -1.
         21    1    1    2  504  503 -0.21647357051E+02  0.60651718413E+01  0.11532730801E+03  0.11749800998E+03  0.00000000000E+00 0. -1.
<mgrwt>
<rscale>  2 0.22480978E+02</rscale>
<asrwt>0</asrwt>
<pdfrwt beam="1">  1       21 0.22857488E-01 0.22480978E+02</pdfrwt>
<pdfrwt beam="2">  1       21 0.77138079E-03 0.22480978E+02</pdfrwt>
<totfact> 0.71418279E+07</totfact>
</mgrwt>
</event>
<event>
 4    1  0.9374408E+003  0.2044079E+02  0.7546771E-02  0.1736702E+00
         21   -1    0    0  502  501  0.00000000000E+00  0.00000000000E+00  0.11965527808E+02  0.11965527808E+02  0.00000000000E+00 0.  1.
         21   -1    0    0  503  502 -0.00000000000E+00 -0.00000000000E+00 -0.49623650252E+02  0.49623650252E+02  0.00000000000E+00 0.  1.
         21    1    1    2  503  504 -0.19964631167E+02 -0.43862763160E+01 -0.20659213128E+01  0.20544925126E+02  0.00000000000E+00 0. -1.
         21    1    1    2  504  501  0.19964631167E+02  0.43862763160E+01 -0.35592201131E+02  0.41044252935E+02  0.00000000000E+00 0. -1.
<mgrwt>
<rscale>  2 0.20440791E+02</rscale>
<asrwt>0</asrwt>
<pdfrwt beam="1">  1       21 0.18408504E-02 0.20440791E+02</pdfrwt>
<pdfrwt beam="2">  1       21 0.76344078E-02 0.20440791E+02</pdfrwt>
<totfact> 0.11901038E+08</totfact>
</mgrwt>
</event>
<event>
 4    1  0.9374408E+003  0.2070378E+02  0.7546771E-02  0.1731684E+00
         21   -1    0    0  504  501  0.00000000000E+00  0.00000000000E+00  0.95425222661E+02  0.95425222661E+02  0.00000000000E+00 0.  1.
         21   -1    0    0  501  502 -0.00000000000E+00 -0.00000000000E+00 -0.51509887987E+01  0.51509887987E+01  0.00000000000E+00 0.  1.
         21    1    1    2  503  502 -0.68693277940E+01 -0.19530967742E+02  0.63124661666E+02  0.66433194081E+02  0.00000000000E+00 0. -1.
         21    1    1    2  504  503  0.68693277940E+01  0.19530967742E+02  0.27149572196E+02  0.34143017378E+02  0.00000000000E+00 0. -1.
<mgrwt>
<rscale>  2 0.20703777E+02</rscale>
<asrwt>0</asrwt>
<pdfrwt beam="1">  1       21 0.14680802E-01 0.20703777E+02</pdfrwt>
<pdfrwt beam="2">  1       21 0.79245989E-03 0.20703777E+02</pdfrwt>
<totfact> 0.14399377E+08</totfact>
</mgrwt>
</event>
<event>
 4    1  0.9374408E+003  0.2009501E+02  0.7546771E-02  0.1743445E+00
         21   -1    0    0  503  501  0.00000000000E+00  0.00000000000E+00  0.26441971870E+03  0.26441971870E+03  0.00000000000E+00 0. -1.
         21   -1    0    0  501  502 -0.00000000000E+00 -0.00000000000E+00 -0.23079060407E+01  0.23079060407E+01  0.00000000000E+00 0. -1.
         21    1    1    2  503  504  0.18180943235E+02 -0.85593583783E+01  0.20862448591E+03  0.20959004135E+03  0.00000000000E+00 0.  1.
         21    1    1    2  504  502 -0.18180943235E+02  0.85593583783E+01  0.53487326755E+02  0.57137583394E+02  0.00000000000E+00 0.  1.
<mgrwt>
<rscale>  2 0.20095007E+02</rscale>
<asrwt>0</asrwt>
<pdfrwt beam="1">  1       21 0.40679933E-01 0.20095007E+02</pdfrwt>
<pdfrwt beam="2">  1       21 0.35506268E-03 0.20095007E+02</pdfrwt>
<totfact> 0.76218031E+07</totfact>
</mgrwt>
</event>
<event>
 4    1  0.9374408E+003  0.2214668E+02  0.7546771E-02  0.1705728E+00
         21   -1    0    0  504  501  0.00000000000E+00  0.00000000000E+00  0.11054579151E+03  0.11054579151E+03  0.00000000000E+00 0. -1.
         21   -1    0    0  501  502 -0.00000000000E+00 -0.00000000000E+00 -0.45799652984E+01  0.45799652984E+01  0.00000000000E+00 0. -1.
         21    1    1    2  503  502  0.22142078280E+02 -0.45129971881E+00  0.42807510575E+02  0.48197077335E+02  0.00000000000E+00 0.  1.
         21    1    1    2  504  503 -0.22142078280E+02  0.45129971881E+00  0.63158315637E+02  0.66928679474E+02  0.00000000000E+00 0.  1.
<mgrwt>
<rscale>  2 0.22146677E+02</rscale>
<asrwt>0</asrwt>
<pdfrwt beam="1">  1       21 0.17007043E-01 0.22146677E+02</pdfrwt>
<pdfrwt beam="2">  1       21 0.70461013E-03 0.22146677E+02</pdfrwt>
<totfact> 0.13614211E+08</totfact>
</mgrwt>
</event>
<event>
 4    1  0.9374408E+003  0.2130111E+02  0.7546771E-02  0.1720627E+00
         21   -1    0    0  503  501  0.00000000000E+00  0.00000000000E+00  0.97871129023E+00  0.97871129023E+00  0.00000000000E+00 0. -1.
         21   -1    0    0  501  502 -0.00000000000E+00 -0.00000000000E+00 -0.53674843911E+03  0.53674843911E+03  0.00000000000E+00 0. -1.
         21    1    1    2  503  504  0.12030696852E+02 -0.17578384977E+02 -0.16863528135E+03  0.16997527879E+03  0.00000000000E+00 0.  1.
         21    1    1    2  504  502 -0.12030696852E+02  0.17578384977E+02 -0.36713444647E+03  0.36775187161E+03  0.00000000000E+00 0.  1.
<mgrwt>
<rscale>  2 0.21301110E+02</rscale>
<asrwt>0</asrwt>
<pdfrwt beam="1">  1       21 0.15057127E-03 0.21301110E+02</pdfrwt>
<pdfrwt beam="2">  1       21 0.82576516E-01 0.21301110E+02</pdfrwt>
<totfact> 0.65582253E+07</totfact>
</mgrwt>
</event>
<event>
 4    1  0.9374408E+003  0.2071358E+02  0.7546771E-02  0.1731499E+00
         21   -1    0    0  502  501  0.00000000000E+00  0.00000000000E+00  0.33076440244E+02  0.33076440244E+02  0.00000000000E+00 0. -1.
         21   -1    0    0  504  502 -0.00000000000E+00 -0.00000000000E+00 -0.18524431810E+02  0.18524431810E+02  0.00000000000E+00 0. -1.
         21    1    1    2  503  501 -0.19835643483E+02  0.59665454515E+01 -0.68498313091E+01  0.21816796419E+02  0.00000000000E+00 0. -1.
         21    1    1    2  504  503  0.19835643483E+02 -0.59665454515E+01  0.21401839743E+02  0.29784075635E+02  0.00000000000E+00 0. -1.
<mgrwt>
<rscale>  2 0.20713580E+02</rscale>
<asrwt>0</asrwt>
<pdfrwt beam="1">  1       21 0.50886831E-02 0.20713580E+02</pdfrwt>
<pdfrwt beam="2">  1       21 0.28499126E-02 0.20713580E+02</pdfrwt>
<totfact> 0.11700600E+08</totfact>
</mgrwt>
</event>
<event>
 4    1  0.9374408E+003  0.2277905E+02  0.7546771E-02  0.1695117E+00
         21   -1    0    0  504  501  0.00000000000E+00  0.00000000000E+00  0.74221459274E+02  0.74221459274E+02  0.00000000000E+00 0. -1.
         21   -1    0    0  501  502 -0.00000000000E+00 -0.00000000000E+00 -0.13462565487E+02  0.13462565487E+02  0.00000000000E+00 0. -1.
         21    1    1    2  503  502 -0.13391884077E+02 -0.18426685874E+02  0.60776385356E+02  0.64904963819E+02  0.00000000000E+00 0. -1.
         21    1    1    2  504  503  0.13391884077E+02  0.18426685874E+02 -0.17491569722E-01  0.22779060942E+02  0.00000000000E+00 0. -1.
<mgrwt>
<rscale>  2 0.22779054E+02</rscale>
<asrwt>0</asrwt>
<pdfrwt beam="1">  1       21 0.11418686E-01 0.22779054E+02</pdfrwt>
<pdfrwt beam="2">  1       21 0.20711640E-02 0.22779054E+02</pdfrwt>
<totfact> 0.52873103E+07</totfact>
</mgrwt>
</event>
<event>
 4    1  0.9374408E+003  0.2031343E+02  0.7546771E-02  0.1739166E+00
         21   -1    0    0  502  501  0.00000000000E+00  0.00000000000E+00  0.82034516630E+01  0.82034516630E+01  0.00000000000E+00 0.  1.
         21   -1    0    0  504  502 -0.00000000000E+00 -0.00000000000E+00 -0.93239704907E+02  0.93239704907E+02  0.00000000000E+00 0.  1.
         21    1    1    2  503  501  0.11349267065E+02 -0.16847242011E+02 -0.76938908174E+02  0.79575316633E+02  0.00000000000E+00 0. -1.
         21    1    1    2  504  503 -0.11349267065E+02  0.16847242011E+02 -0.80973450703E+01  0.21867839937E+02  0.00000000000E+00 0. -1.
<mgrwt>
<rscale>  2 0.20313430E+02</rscale>
<asrwt>0</asrwt>
<pdfrwt beam="1">  1       21 0.12620696E-02 0.20313430E+02</pdfrwt>
<pdfrwt beam="2">  1       21 0.14344569E-01 0.20313430E+02</pdfrwt>
<totfact> 0.74241471E+07</totfact>
</mgrwt>
</event>
<event>
 4    1  0.9374408E+003  0.3580746E+02  0.7546771E-02  0.1541545E+00
         21   -1    0    0  502  501  0.00000000000E+00  0.00000000000E+00  0.58706968294E+02  0.58706968294E+02  0.00000000000E+00 0.  1.
         21   -1    0    0  504  502 -0.00000000000E+00 -0.00000000000E+00 -0.26405393583E+02  0.26405393583E+02  0.00000000000E+00 0.  1.
         21    1    1    2  503  501 -0.88907476064E+01  0.34686150546E+02 -0.15439407854E+01  0.35840733612E+02  0.00000000000E+00 0.  1.
         21    1    1    2  504  503  0.88907476064E+01 -0.34686150546E+02  0.33845515497E+02  0.49271628265E+02  0.00000000000E+00 0.  1.
<mgrwt>
<rscale>  2 0.35807463E+02</rscale>
<asrwt>0</asrwt>
<pdfrwt beam="1">  1       21 0.90318412E-02 0.35807463E+02</pdfrwt>
<pdfrwt beam="2">  1       21 0.40623683E-02 0.35807463E+02</pdfrwt>
<totfact> 0.30053918E+07</totfact>
</mgrwt>
</event>
<event>
 4    1  0.9374408E+003  0.2472299E+02  0.7546771E-02  0.1665013E+00
         21   -1    0    0  502  501  0.00000000000E+00  0.00000000000E+00  0.86241655139E+02  0.86241655139E+02  0.00000000000E+00 0. -1.
         21   -1    0    0  504  502 -0.00000000000E+00 -0.00000000000E+00 -0.11729557646E+02  0.11729557646E+02  0.00000000000E+00 0. -1.
         21    1    1    2  503  501 -0.21884021979E+02  0.11502856822E+02  0.68072968457E+02  0.72423443494E+02  0.00000000000E+00 0.  1.
         21    1    1    2  504  503  0.21884021979E+02 -0.11502856822E+02  0.64391290363E+01  0.25547769291E+02  0.00000000000E+00 0.  1.
<mgrwt>
<rscale>  2 0.24722988E+02</rscale>
<asrwt>0</asrwt>
<pdfrwt beam="1">  1       21 0.13267946E-01 0.24722988E+02</pdfrwt>
<pdfrwt beam="2">  1       21 0.18045474E-02 0.24722988E+02</pdfrwt>
<totfact> 0.51836824E+07</totfact>
</mgrwt>
</event>
<event>
 4    1  0.9374408E+003  0.2032292E+02  0.7546771E-02  0.1738982E+00
         21   -1    0    0  504  501  0.00000000000E+00  0.00000000000E+00  0.12741891931E+01  0.12741891931E+01  0.00000000000E+00 0.  1.
         21   -1    0    0  501  502 -0.00000000000E+00 -0.00000000000E+00 -0.35527512547E+03  0.35527512547E+03  0.00000000000E+00 0.  1.
         21    1    1    2  503  502  0.14936708492E+02 -0.13780995643E+02 -0.22977238512E+03  0.23066939559E+03  0.00000000000E+00 0.  1.
         21    1    1    2  504  503 -0.14936708492E+02  0.13780995643E+02 -0.12422855117E+03  0.12587991907E+03  0.00000000000E+00 0.  1.
<mgrwt>
<rscale>  2 0.20322921E+02</rscale>
<asrwt>0</asrwt>
<pdfrwt beam="1">  1       21 0.19602911E-03 0.20322921E+02</pdfrwt>
<pdfrwt beam="2">  1       21 0.54657710E-01 0.20322921E+02</pdfrwt>
<totfact> 0.10248861E+08</totfact>
</mgrwt>
</event>
<event>
 4    1  0.9374408E+003  0.2283083E+02  0.7546771E-02  0.1694267E+00
         21   -1    0    0  502  501  0.00000000000E+00  0.00000000000E+00  0.44657323122E+02  0.44657323122E+02  0.00000000000E+00 0.  1.
         21   -1    0    0  503  502 -0.00000000000E+00 -0.00000000000E+00 -0.14457326048E+02  0.14457326048E+02  0.00000000000E+00 0.  1.
         21    1    1    2  503  504 -0.16029266701E+02  0.16257602392E+02  0.21267909512E+01  0.22929680902E+02  0.00000000000E+00 0.  1.
         21    1    1    2  504  501  0.16029266701E+02 -0.16257602392E+02  0.28073206123E+02  0.36184968268E+02  0.00000000000E+00 0.  1.
<mgrwt>
<rscale>  2 0.22830835E+02</rscale>
<asrwt>0</asrwt>
<pdfrwt beam="1">  1       21 0.68703573E-02 0.22830835E+02</pdfrwt>
<pdfrwt beam="2">  1       21 0.22242040E-02 0.22830835E+02</pdfrwt>
<totfact> 0.10916758E+08</totfact>
</mgrwt>
</event>
<event>
 4    1  0.9374408E+003  0.2049890E+02  0.7546771E-02  0.1735585E+00
         21   -1    0    0  502  501  0.00000000000E+00  0.00000000000E+00  0.71271047033E+02  0.71271047033E+02  0.00000000000E+00 0. -1.
         21   -1    0    0  503  502 -0.00000000000E+00 -0.00000000000E+00 -0.59627724998E+01  0.59627724998E+01  0.00000000000E+00 0. -1.
         21    1    1    2  503  504 -0.20452329049E+01  0.20396611724E+02  0.28563619901E+02  0.35158002351E+02  0.00000000000E+00 0.  1.
         21    1    1    2  504  501  0.20452329049E+01 -0.20396611724E+02  0.36744654632E+02  0.42075817181E+02  0.00000000000E+00 0.  1.
<mgrwt>
<rscale>  2 0.20498896E+02</rscale>
<asrwt>0</asrwt>
<pdfrwt beam="1">  1       21 0.10964776E-01 0.20498896E+02</pdfrwt>
<pdfrwt beam="2">  1       21 0.91734967E-03 0.20498896E+02</pdfrwt>
<totfact> 0.18813308E+08</totfact>
</mgrwt>
</event>
<event>
 4    1  0.9374408E+003  0.2818067E+02  0.7546771E-02  0.1619116E+00
         21   -1    0    0  503  501  0.00000000000E+00  0.00000000000E+00  0.67895808111E+00  0.67895808111E+00  0.00000000000E+00 0. -1.
         21   -1    0    0  501  502 -0.00000000000E+00 -0.00000000000E+00 -0.17040514843E+04  0.17040514843E+04  0.00000000000E+00 0. -1.
         21    1    1    2  503  504  0.31626629662E+01  0.28002640664E+02 -0.13290110668E+04  0.13293098081E+04  0.00000000000E+00 0. -1.
         21    1    1    2  504  502 -0.31626629662E+01 -0.28002640664E+02 -0.37436145943E+03  0.37542063426E+03  0.00000000000E+00 0. -1.
<mgrwt>
<rscale>  2 0.28180673E+02</rscale>
<asrwt>0</asrwt>
<pdfrwt beam="1">  1       21 0.10445562E-03 0.28180673E+02</pdfrwt>
<pdfrwt beam="2">  1       21 0.26216044E+00 0.28180673E+02</pdfrwt>
<totfact> 0.70339106E+06</totfact>
</mgrwt>
</event>
<event>
 4    1  0.9374408E+003  0.2043625E+02  0.7546771E-02  0.1736789E+00
         21   -1    0    0  503  501  0.00000000000E+00  0.00000000000E+00  0.41863113570E+02  0.41863113570E+02  0.00000000000E+00 0.  1.
         21   -1    0    0  501  502 -0.00000000000E+00 -0.00000000000E+00 -0.12628726092E+02  0.12628726092E+02  0.00000000000E+00 0.  1.
         21    1    1    2  503  504  0.89424977962E+01  0.18375857333E+02  0.21306980408E+01  0.20547025909E+02  0.00000000000E+00 0.  1.
         21    1    1    2  504  502 -0.89424977962E+01 -0.18375857333E+02  0.27103689437E+02  0.33944813753E+02  0.00000000000E+00 0.  1.
<mgrwt>
<rscale>  2 0.20436252E+02</rscale>
<asrwt>0</asrwt>
<pdfrwt beam="1">  1       21 0.64404789E-02 0.20436252E+02</pdfrwt>
<pdfrwt beam="2">  1       21 0.19428810E-02 0.20436252E+02</pdfrwt>
<totfact> 0.14417263E+08</totfact>
</mgrwt>
</event>
<event>
 4    1  0.9374408E+003  0.2443256E+02  0.7546771E-02  0.1669289E+00
         21   -1    0    0  504  501  0.00000000000E+00  0.00000000000E+00  0.28188188596E+02  0.28188188596E+02  0.00000000000E+00 0. -1.
         21   -1    0    0  501  502 -0.00000000000E+00 -0.00000000000E+00 -0.63743240837E+02  0.63743240837E+02  0.00000000000E+00 0. -1.
         21    1    1    2  503  502  0.91279275617E+01 -0.22663423620E+02  0.19784416654E+02  0.31438399675E+02  0.00000000000E+00 0.  1.
         21    1    1    2  504  503 -0.91279275617E+01  0.22663423620E+02 -0.55339468895E+02  0.60493029759E+02  0.00000000000E+00 0.  1.
<mgrwt>
<rscale>  2 0.24432557E+02</rscale>
<asrwt>0</asrwt>
<pdfrwt beam="1">  1       21 0.43366445E-02 0.24432557E+02</pdfrwt>
<pdfrwt beam="2">  1       21 0.98066523E-02 0.24432557E+02</pdfrwt>
<totfact> 0.21880422E+07</totfact>
</mgrwt>
</event>
<event>
 4    1  0.9374408E+003  0.2057374E+02  0.7546771E-02  0.1734153E+00
         21   -1    0    0  503  501  0.00000000000E+00  0.00000000000E+00  0.81095550647E+01  0.81095550647E+01  0.00000000000E+00 0.  1.
         21   -1    0    0  501  502 -0.00000000000E+00 -0.00000000000E+00 -0.63199050080E+02  0.63199050080E+02  0.00000000000E+00 0.  1.
         21    1    1    2  503  504 -0.89051046577E+01 -0.18546640593E+02 -0.12667190043E+02  0.24160638854E+02  0.00000000000E+00 0.  1.
         21    1    1    2  504  502  0.89051046577E+01  0.18546640593E+02 -0.42422304972E+02  0.47147966291E+02  0.00000000000E+00 0.  1.
<mgrwt>
<rscale>  2 0.20573740E+02</rscale>
<asrwt>0</asrwt>
<pdfrwt beam="1">  1       21 0.12476238E-02 0.20573740E+02</pdfrwt>
<pdfrwt beam="2">  1       21 0.97229309E-02 0.20573740E+02</pdfrwt>
<totfact> 0.14485352E+08</totfact>
</mgrwt>
</event>
<event>
 4    1  0.9374408E+003  0.2685408E+02  0.7546771E-02  0.1635716E+00
         21   -1    0    0  502  501  0.00000000000E+00  0.00000000000E+00  0.12455159678E+01  0.12455159678E+01  0.00000000000E+00 0. -1.
         21   -1    0    0  503  502 -0.00000000000E+00 -0.00000000000E+00 -0.11568479814E+04  0.11568479814E+04  0.00000000000E+00 0. -1.
         21    1    1    2  503  504 -0.25084931535E+02 -0.95858249214E+01 -0.16855388243E+03  0.17067967984E+03  0.00000000000E+00 0.  1.
         21    1    1    2  504  501  0.25084931535E+02  0.95858249214E+01 -0.98704858305E+03  0.98741381757E+03  0.00000000000E+00 0.  1.
<mgrwt>
<rscale>  2 0.26854084E+02</rscale>
<asrwt>0</asrwt>
<pdfrwt beam="1">  1       21 0.19161827E-03 0.26854084E+02</pdfrwt>
<pdfrwt beam="2">  1       21 0.17797621E+00 0.26854084E+02</pdfrwt>
<totfact> 0.83721273E+06</totfact>
</mgrwt>
</event>
<event>
 4    1  0.9374408E+003  0.2060497E+02  0.7546771E-02  0.1733558E+00
         21   -1    0    0  504  501  0.00000000000E+00  0.00000000000E+00  0.10607988356E+01  0.10607988356E+01  0.00000000000E+00 0.  1.
         21   -1    0    0  501  502 -0.00000000000E+00 -0.00000000000E+00 -0.62848368396E+03  0.62848368396E+03  0.00000000000E+00 0.  1.
         21    1    1    2  503  502  0.55472874094E+01  0.19844207410E+02 -0.12401594516E+03  0.12571602769E+03  0.00000000000E+00 0. -1.
         21    1    1    2  504  503 -0.55472874094E+01 -0.19844207410E+02 -0.50340693997E+03  0.50382845510E+03  0.00000000000E+00 0. -1.
<mgrwt>
<rscale>  2 0.20604974E+02</rscale>
<asrwt>0</asrwt>
<pdfrwt beam="1">  1       21 0.16319932E-03 0.20604974E+02</pdfrwt>
<pdfrwt beam="2">  1       21 0.96690096E-01 0.20604974E+02</pdfrwt>
<totfact> 0.41435032E+07</totfact>
</mgrwt>
</event>
<event>
 4    1  0.9374408E+003  0.4018956E+02  0.7546771E-02  0.1506821E+00
         21   -1    0    0  502  501  0.00000000000E+00  0.00000000000E+00  0.27991494053E+02  0.27991494053E+02  0.00000000000E+00 0.  1.
         21   -1    0    0  503  502 -0.00000000000E+00 -0.00000000000E+00 -0.75461358225E+02  0.75461358225E+02  0.00000000000E+00 0.  1.
         21    1    1    2  503  504 -0.37548943322E+02  0.14327498235E+02  0.13578282689E+01  0.40212486219E+02  0.00000000000E+00 0.  1.
         21    1    1    2  504  501  0.37548943322E+02 -0.14327498235E+02 -0.48827692440E+02  0.63240366059E+02  0.00000000000E+00 0.  1.
<mgrwt>
<rscale>  2 0.40189555E+02</rscale>
<asrwt>0</asrwt>
<pdfrwt beam="1">  1       21 0.43063838E-02 0.40189555E+02</pdfrwt>
<pdfrwt beam="2">  1       21 0.11609440E-01 0.40189555E+02</pdfrwt>
<totfact> 0.18257227E+07</totfact>
</mgrwt>
</event>
<event>
 4    1  0.9374408E+003  0.4385311E+02  0.7546771E-02  0.1481631E+00
         21   -1    0    0  503  501  0.00000000000E+00  0.00000000000E+00  0.13424141049E+03  0.13424141049E+03  0.00000000000E+00 0.  1.
         21   -1    0    0  501  502 -0.00000000000E+00 -0.00000000000E+00 -0.33519831163E+02  0.33519831163E+02  0.00000000000E+00 0.  1.
         21    1    1    2  503  504  0.76940291689E+01  0.43172877530E+02 -0.13113159786E+02  0.45771720512E+02  0.00000000000E+00 0. -1.
         21    1    1    2  504  502 -0.76940291689E+01 -0.43172877530E+02  0.11383473911E+03  0.12198952114E+03  0.00000000000E+00 0. -1.
<mgrwt>
<rscale>  2 0.43853112E+02</rscale>
<asrwt>0</asrwt>
<pdfrwt beam="1">  1       21 0.20652524E-01 0.43853112E+02</pdfrwt>
<pdfrwt beam="2">  1       21 0.51568972E-02 0.43853112E+02</pdfrwt>
<totfact> 0.50362467E+06</totfact>
</mgrwt>
</event>
<event>
 4    1  0.9374408E+003  0.3070117E+02  0.7546771E-02  0.1590465E+00
         21   -1    0    0  502  501  0.00000000000E+00  0.00000000000E+00  0.54978786877E+02  0.54978786877E+02  0.00000000000E+00 0. -1.
         21   -1    0    0  504  502 -0.00000000000E+00 -0.00000000000E+00 -0.30930985449E+02  0.30930985449E+02  0.00000000000E+00 0. -1.
         21    1    1    2  503  501  0.16033374513E+02  0.26181920757E+02  0.40701890471E+02  0.50982408346E+02  0.00000000000E+00 0.  1.
         21    1    1    2  504  503 -0.16033374513E+02 -0.26181920757E+02 -0.16654089043E+02  0.34927363981E+02  0.00000000000E+00 0.  1.
<mgrwt>
<rscale>  2 0.30701174E+02</rscale>
<asrwt>0</asrwt>
<pdfrwt beam="1">  1       21 0.84582749E-02 0.30701174E+02</pdfrwt>
<pdfrwt beam="2">  1       21 0.47586132E-02 0.30701174E+02</pdfrwt>
<totfact> 0.25254424E+07</totfact>
</mgrwt>
</event>
<event>
 4    1  0.9374408E+003  0.2220486E+02  0.7546771E-02  0.1704733E+00
         21   -1    0    0  502  501  0.00000000000E+00  0.00000000000E+00  0.32768798015E+01  0.32768798015E+01  0.00000000000E+00 0.  1.
         21   -1    0    0  503  502 -0.00000000000E+00 -0.00000000000E+00 -0.57821360185E+03  0.57821360185E+03  0.00000000000E+00 0.  1.
         21    1    1    2  503  504 -0.22106680319E+02  0.20858305278E+01 -0.53753900814E+03  0.53799743612E+03  0.00000000000E+00 0.  1.
         21    1    1    2  504  501  0.22106680319E+02 -0.20858305278E+01 -0.37397713912E+02  0.43493045531E+02  0.00000000000E+00 0.  1.
<mgrwt>
<rscale>  2 0.22204864E+02</rscale>
<asrwt>0</asrwt>
<pdfrwt beam="1">  1       21 0.50413524E-03 0.22204864E+02</pdfrwt>
<pdfrwt beam="2">  1       21 0.88955958E-01 0.22204864E+02</pdfrwt>
<totfact> 0.97759845E+06</totfact>
</mgrwt>
</event>
<event>
 4    1  0.9374408E+003  0.2153374E+02  0.7546771E-02  0.1716443E+00
         21   -1    0    0  502  501  0.00000000000E+00  0.00000000000E+00  0.71534994541E+02  0.71534994541E+02  0.00000000000E+00 0.  1.
         21   -1    0    0  503  502 -0.00000000000E+00 -0.00000000000E+00 -0.88399172637E+01  0.88399172637E+01  0.00000000000E+00 0.  1.
         21    1    1    2  503  504  0.41399783617E+01 -0.21132030123E+02  0.52102163155E+02  0.56376746301E+02  0.00000000000E+00 0.  1.
         21    1    1    2  504  501 -0.41399783617E+01  0.21132030123E+02  0.10592914122E+02  0.23998165504E+02  0.00000000000E+00 0.  1.
<mgrwt>
<rscale>  2 0.21533744E+02</rscale>
<asrwt>0</asrwt>
<pdfrwt beam="1">  1       21 0.11005383E-01 0.21533744E+02</pdfrwt>
<pdfrwt beam="2">  1       21 0.13599873E-02 0.21533744E+02</pdfrwt>
<totfact> 0.10506597E+08</totfact>
</mgrwt>
</event>
<event>
 4    1  0.9374408E+003  0.2256340E+02  0.7546771E-02  0.1698686E+00
         21   -1    0    0  504  501  0.00000000000E+00  0.00000000000E+00  0.23552459667E+02  0.23552459667E+02  0.00000000000E+00 0. -1.
         21   -1    0    0  501  502 -0.00000000000E+00 -0.00000000000E+00 -0.27057376449E+02  0.27057376449E+02  0.00000000000E+00 0. -1.
         21    1    1    2  503  502 -0.17969437922E+02 -0.13645750979E+02  0.95955889182E+01  0.24519024159E+02  0.00000000000E+00 0.  1.
         21    1    1    2  504  503  0.17969437922E+02  0.13645750979E+02 -0.13100505699E+02  0.26090811957E+02  0.00000000000E+00 0.  1.
<mgrwt>
<rscale>  2 0.22563404E+02</rscale>
<asrwt>0</asrwt>
<pdfrwt beam="1">  1       21 0.36234553E-02 0.22563404E+02</pdfrwt>
<pdfrwt beam="2">  1       21 0.41626733E-02 0.22563404E+02</pdfrwt>
<totfact> 0.11344939E+08</totfact>
</mgrwt>
</event>
<event>
 4    1  0.9374408E+003  0.2703597E+02  0.7546771E-02  0.1633371E+00
         21   -1    0    0  503  501  0.00000000000E+00  0.00000000000E+00  0.17335413927E+02  0.17335413927E+02  0.00000000000E+00 0.  1.
         21   -1    0    0  501  502 -0.00000000000E+00 -0.00000000000E+00 -0.15084354081E+03  0.15084354081E+03  0.00000000000E+00 0.  1.
         21    1    1    2  503  504 -0.21442375470E+02 -0.16467193402E+02  0.46216778783E+01  0.27428157626E+02  0.00000000000E+00 0. -1.
         21    1    1    2  504  502  0.21442375470E+02  0.16467193402E+02 -0.13812980476E+03  0.14075079711E+03  0.00000000000E+00 0. -1.
<mgrwt>
<rscale>  2 0.27035975E+02</rscale>
<asrwt>0</asrwt>
<pdfrwt beam="1">  1       21 0.26669868E-02 0.27035975E+02</pdfrwt>
<pdfrwt beam="2">  1       21 0.23206698E-01 0.27035975E+02</pdfrwt>
<totfact> 0.10945085E+07</totfact>
</mgrwt>
</event>
<event>
 4    1  0.9374408E+003  0.2009953E+02  0.7546771E-02  0.1743356E+00
         21   -1    0    0  503  501  0.00000000000E+00  0.00000000000E+00  0.43550935516E+02  0.43550935516E+02  0.00000000000E+00 0.  1.
         21   -1    0    0  501  502 -0.00000000000E+00 -0.00000000000E+00 -0.95715309725E+01  0.95715309725E+01  0.00000000000E+00 0.  1.
         21    1    1    2  503  504  0.11398235666E+02  0.16555096527E+02  0.21654659943E+02  0.29545139948E+02  0.00000000000E+00 0. -1.
         21    1    1    2  504  502 -0.11398235666E+02 -0.16555096527E+02  0.12324744600E+02  0.23577326540E+02  0.00000000000E+00 0. -1.
<mgrwt>
<rscale>  2 0.20099527E+02</rscale>
<asrwt>0</asrwt>
<pdfrwt beam="1">  1       21 0.67001438E-02 0.20099527E+02</pdfrwt>
<pdfrwt beam="2">  1       21 0.14725433E-02 0.20099527E+02</pdfrwt>
<totfact> 0.20501834E+08</totfact>
</mgrwt>
</event>
<event>
 4    1  0.9374408E+003  0.2855098E+02  0.7546771E-02  0.1614681E+00
         21   -1    0    0  502  501  0.00000000000E+00  0.00000000000E+00  0.33532924824E+01  0.33532924824E+01  0.00000000000E+00 0.  1.
         21   -1    0    0  503  502 -0.00000000000E+00 -0.00000000000E+00 -0.46574416925E+03  0.46574416925E+03  0.00000000000E+00 0.  1.
         21    1    1    2  503  504 -0.28300233648E+02  0.37756185855E+01 -0.69024564986E+02  0.74696379375E+02  0.00000000000E+00 0. -1.
         21    1    1    2  504  501  0.28300233648E+02 -0.37756185855E+01 -0.39336631178E+03  0.39440108236E+03  0.00000000000E+00 0. -1.
<mgrwt>
<rscale>  2 0.28550981E+02</rscale>
<asrwt>0</asrwt>
<pdfrwt beam="1">  1       21 0.51589090E-03 0.28550981E+02</pdfrwt>
<pdfrwt beam="2">  1       21 0.71652984E-01 0.28550981E+02</pdfrwt>
<totfact> 0.15537892E+07</totfact>
</mgrwt>
</event>
<event>
 4    1  0.9374408E+003  0.2558492E+02  0.7546771E-02  0.1652740E+00
         21   -1    0    0  502  501  0.00000000000E+00  0.00000000000E+00  0.42559266958E+02  0.42559266958E+02  0.00000000000E+00 0. -1.
         21   -1    0    0  503  502 -0.00000000000E+00 -0.00000000000E+00 -0.21705266948E+02  0.21705266948E+02  0.00000000000E+00 0. -1.
         21    1    1    2  503  504  0.13641324494E+01 -0.25548526543E+02 -0.69181005012E+01  0.26503738989E+02  0.00000000000E+00 0. -1.
         21    1    1    2  504  501 -0.13641324494E+01  0.25548526543E+02  0.27772100512E+02  0.37760794916E+02  0.00000000000E+00 0. -1.
<mgrwt>
<rscale>  2 0.25584919E+02</rscale>
<asrwt>0</asrwt>
<pdfrwt beam="1">  1       21 0.65475795E-02 0.25584919E+02</pdfrwt>
<pdfrwt beam="2">  1       21 0.33392718E-02 0.25584919E+02</pdfrwt>
<totfact> 0.64714083E+07</totfact>
</mgrwt>
</event>
<event>
 4    1  0.9374408E+003  0.2009562E+02  0.7546771E-02  0.1743433E+00
         21   -1    0    0  503  501  0.00000000000E+00  0.00000000000E+00  0.80156523540E+02  0.80156523540E+02  0.00000000000E+00 0. -1.
         21   -1    0    0  501  502 -0.00000000000E+00 -0.00000000000E+00 -0.63498171486E+01  0.63498171486E+01  0.00000000000E+00 0. -1.
         21    1    1    2  503  504  0.18301393347E+02  0.83001769767E+01  0.56562419914E+02  0.60026171649E+02  0.00000000000E+00 0.  1.
         21    1    1    2  504  502 -0.18301393347E+02 -0.83001769767E+01  0.17244286478E+02  0.26480169040E+02  0.00000000000E+00 0.  1.
<mgrwt>
<rscale>  2 0.20095620E+02</rscale>
<asrwt>0</asrwt>
<pdfrwt beam="1">  1       21 0.12331772E-01 0.20095620E+02</pdfrwt>
<pdfrwt beam="2">  1       21 0.97689500E-03 0.20095620E+02</pdfrwt>
<totfact> 0.14001329E+08</totfact>
</mgrwt>
</event>
<event>
 4    1  0.9374408E+003  0.2163068E+02  0.7546771E-02  0.1714719E+00
         21   -1    0    0  504  501  0.00000000000E+00  0.00000000000E+00  0.20730513048E+02  0.20730513048E+02  0.00000000000E+00 0.  1.
         21   -1    0    0  501  502 -0.00000000000E+00 -0.00000000000E+00 -0.29712507953E+02  0.29712507953E+02  0.00000000000E+00 0.  1.
         21    1    1    2  503  502 -0.21473582738E+02 -0.26021867598E+01  0.78749977479E+01  0.23019594286E+02  0.00000000000E+00 0. -1.
         21    1    1    2  504  503  0.21473582738E+02  0.26021867598E+01 -0.16856992653E+02  0.27423426716E+02  0.00000000000E+00 0. -1.
<mgrwt>
<rscale>  2 0.21630676E+02</rscale>
<asrwt>0</asrwt>
<pdfrwt beam="1">  1       21 0.31893097E-02 0.21630676E+02</pdfrwt>
<pdfrwt beam="2">  1       21 0.45711551E-02 0.21630676E+02</pdfrwt>
<totfact> 0.11796707E+08</totfact>
</mgrwt>
</event>
<event>
 4    1  0.9374408E+003  0.2117540E+02  0.7546771E-02  0.1722916E+00
         21   -1    0    0  502  501  0.00000000000E+00  0.00000000000E+00  0.58383008617E+02  0.58383008617E+02  0.00000000000E+00 0. -1.
         21   -1    0    0  503  502 -0.00000000000E+00 -0.00000000000E+00 -0.25652184475E+02  0.25652184475E+02  0.00000000000E+00 0. -1.
         21    1    1    2  503  504  0.69815582980E+01 -0.19991378708E+02 -0.18804086662E+02  0.28319446571E+02  0.00000000000E+00 0. -1.
         21    1    1    2  504  501 -0.69815582980E+01  0.19991378708E+02  0.51534910804E+02  0.55715746522E+02  0.00000000000E+00 0. -1.
<mgrwt>
<rscale>  2 0.21175396E+02</rscale>
<asrwt>0</asrwt>
<pdfrwt beam="1">  1       21 0.89820013E-02 0.21175396E+02</pdfrwt>
<pdfrwt beam="2">  1       21 0.39464899E-02 0.21175396E+02</pdfrwt>
<totfact> 0.28378149E+07</totfact>
</mgrwt>
</event>
<event>
 4    1  0.9374408E+003  0.2603820E+02  0.7546771E-02  0.1646523E+00
         21   -1    0    0  502  501  0.00000000000E+00  0.00000000000E+00  0.12623892177E+03  0.12623892177E+03  0.00000000000E+00 0.  1.
         21   -1    0    0  503  502 -0.00000000000E+00 -0.00000000000E+00 -0.13414422474E+02  0.13414422474E+02  0.00000000000E+00 0.  1.
         21    1    1    2  503  504  0.22194369002E+02  0.13616083553E+02  0.23412162424E+01  0.26143240813E+02  0.00000000000E+00 0. -1.
         21    1    1    2  504  501 -0.22194369002E+02 -0.13616083553E+02  0.11048328306E+03  0.11351010343E+03  0.00000000000E+00 0. -1.
<mgrwt>
<rscale>  2 0.26038198E+02</rscale>
<asrwt>0</asrwt>
<pdfrwt beam="1">  1       21 0.19421372E-01 0.26038198E+02</pdfrwt>
<pdfrwt beam="2">  1       21 0.20637574E-02 0.26038198E+02</pdfrwt>
<totfact> 0.22151993E+07</totfact>
</mgrwt>
</event>
<event>
 4    1  0.9374408E+003  0.2112918E+02  0.7546771E-02  0.1723763E+00
         21   -1    0    0  502  501  0.00000000000E+00  0.00000000000E+00  0.24422227886E+02  0.24422227886E+02  0.00000000000E+00 0.  1.
         21   -1    0    0  504  502 -0.00000000000E+00 -0.00000000000E+00 -0.57201046255E+02  0.57201046255E+02  0.00000000000E+00 0.  1.
         21    1    1    2  503  501  0.21052780799E+02 -0.17951347860E+01 -0.50054006446E+02  0.54330890380E+02  0.00000000000E+00 0. -1.
         21    1    1    2  504  503 -0.21052780799E+02  0.17951347860E+01  0.17275188077E+02  0.27292383761E+02  0.00000000000E+00 0. -1.
<mgrwt>
<rscale>  2 0.21129176E+02</rscale>
<asrwt>0</asrwt>
<pdfrwt beam="1">  1       21 0.37572659E-02 0.21129176E+02</pdfrwt>
<pdfrwt beam="2">  1       21 0.88001609E-02 0.21129176E+02</pdfrwt>
<totfact> 0.31677054E+07</totfact>
</mgrwt>
</event>
<event>
 4    1  0.9374408E+003  0.2338405E+02  0.7546771E-02  0.1685359E+00
         21   -1    0    0  503  501  0.00000000000E+00  0.00000000000E+00  0.10838865027E+01  0.10838865027E+01  0.00000000000E+00 0.  1.
         21   -1    0    0  501  502 -0.00000000000E+00 -0.00000000000E+00 -0.86050386014E+03  0.86050386014E+03  0.00000000000E+00 0.  1.
         21    1    1    2  503  504 -0.22833522693E+02 -0.50442105009E+01 -0.15261775168E+03  0.15439880812E+03  0.00000000000E+00 0. -1.
         21    1    1    2  504  502  0.22833522693E+02  0.50442105009E+01 -0.70680222196E+03  0.70718893853E+03  0.00000000000E+00 0. -1.
<mgrwt>
<rscale>  2 0.23384051E+02</rscale>
<asrwt>0</asrwt>
<pdfrwt beam="1">  1       21 0.16675278E-03 0.23384051E+02</pdfrwt>
<pdfrwt beam="2">  1       21 0.13238441E+00 0.23384051E+02</pdfrwt>
<totfact> 0.20418016E+07</totfact>
</mgrwt>
</event>
<event>
 4    1  0.9374408E+003  0.2296359E+02  0.7546771E-02  0.1692101E+00
         21   -1    0    0  504  501  0.00000000000E+00  0.00000000000E+00  0.27337550427E+02  0.27337550427E+02  0.00000000000E+00 0. -1.
         21   -1    0    0  501  502 -0.00000000000E+00 -0.00000000000E+00 -0.25365726363E+02  0.25365726363E+02  0.00000000000E+00 0. -1.
         21    1    1    2  503  502 -0.22940055114E+02 -0.10393014580E+01 -0.11911506013E+02  0.25869098393E+02  0.00000000000E+00 0. -1.
         21    1    1    2  504  503  0.22940055114E+02  0.10393014580E+01  0.13883330077E+02  0.26834178396E+02  0.00000000000E+00 0. -1.
<mgrwt>
<rscale>  2 0.22963586E+02</rscale>
<asrwt>0</asrwt>
<pdfrwt beam="1">  1       21 0.42057770E-02 0.22963586E+02</pdfrwt>
<pdfrwt beam="2">  1       21 0.39024194E-02 0.22963586E+02</pdfrwt>
<totfact> 0.99854664E+07</totfact>
</mgrwt>
</event>
<event>
 4    1  0.9374408E+003  0.2010669E+02  0.7546771E-02  0.1743215E+00
         21   -1    0    0  503  501  0.00000000000E+00  0.00000000000E+00  0.28562100265E+03  0.28562100265E+03  0.00000000000E+00 0. -1.
         21   -1    0    0  501  502 -0.00000000000E+00 -0.00000000000E+00 -0.18109289050E+01  0.18109289050E+01  0.00000000000E+00 0. -1.
         21    1    1    2  503  504  0.20013024341E+02 -0.19385325193E+01  0.20906680543E+03  0.21003144571E+03  0.00000000000E+00 0. -1.
         21    1    1    2  504  502 -0.20013024341E+02  0.19385325193E+01  0.74743268315E+02  0.77400485851E+02  0.00000000000E+00 0. -1.
<mgrwt>
<rscale>  2 0.20106692E+02</rscale>
<asrwt>0</asrwt>
<pdfrwt beam="1">  1       21 0.43941657E-01 0.20106692E+02</pdfrwt>
<pdfrwt beam="2">  1       21 0.27860467E-03 0.20106692E+02</pdfrwt>
<totfact> 0.93718628E+07</totfact>
</mgrwt>
</event>
<event>
 4    1  0.9374408E+003  0.2053714E+02  0.7546771E-02  0.1734853E+00
         21   -1    0    0  504  501  0.00000000000E+00  0.00000000000E+00  0.53680991131E+00  0.53680991131E+00  0.00000000000E+00 0. -1.
         21   -1    0    0  501  502 -0.00000000000E+00 -0.00000000000E+00 -0.11118078553E+04  0.11118078553E+04  0.00000000000E+00 0. -1.
         21    1    1    2  503  502  0.21273057396E+00 -0.20536037553E+02 -0.25442372068E+03  0.25525125610E+03  0.00000000000E+00 0.  1.
         21    1    1    2  504  503 -0.21273057396E+00  0.20536037553E+02 -0.85684732472E+03  0.85709340913E+03  0.00000000000E+00 0.  1.
<mgrwt>
<rscale>  2 0.20537139E+02</rscale>
<asrwt>0</asrwt>
<pdfrwt beam="1">  1       21 0.82586975E-04 0.20537139E+02</pdfrwt>
<pdfrwt beam="2">  1       21 0.17104563E+00 0.20537139E+02</pdfrwt>
<totfact> 0.29612379E+07</totfact>
</mgrwt>
</event>
<event>
 4    1  0.9374408E+003  0.2043362E+02  0.7546771E-02  0.1736840E+00
         21   -1    0    0  502  501  0.00000000000E+00  0.00000000000E+00  0.39128581834E+00  0.39128581834E+00  0.00000000000E+00 0.  1.
         21   -1    0    0  504  502 -0.00000000000E+00 -0.00000000000E+00 -0.11577828762E+04  0.11577828762E+04  0.00000000000E+00 0.  1.
         21    1    1    2  503  501  0.13908901331E+02  0.14969142897E+02 -0.41661040244E+03  0.41711120843E+03  0.00000000000E+00 0. -1.
         21    1    1    2  504  503 -0.13908901331E+02 -0.14969142897E+02 -0.74078118796E+03  0.74106295361E+03  0.00000000000E+00 0. -1.
<mgrwt>
<rscale>  2 0.20433619E+02</rscale>
<asrwt>0</asrwt>
<pdfrwt beam="1">  1       21 0.60197879E-04 0.20433619E+02</pdfrwt>
<pdfrwt beam="2">  1       21 0.17812026E+00 0.20433619E+02</pdfrwt>
<totfact> 0.41844623E+07</totfact>
</mgrwt>
</event>
<event>
 4    1  0.9374408E+003  0.2353354E+02  0.7546771E-02  0.1683005E+00
         21   -1    0    0  502  501  0.00000000000E+00  0.00000000000E+00  0.58008839335E+01  0.58008839335E+01  0.00000000000E+00 0. -1.
         21   -1    0    0  503  502 -0.00000000000E+00 -0.00000000000E+00 -0.18098112318E+03  0.18098112318E+03  0.00000000000E+00 0. -1.
         21    1    1    2  503  504  0.27008620138E+01 -0.23378044635E+02 -0.23396456015E+02  0.33184661828E+02  0.00000000000E+00 0.  1.
         21    1    1    2  504  501 -0.27008620138E+01  0.23378044635E+02 -0.15178378323E+03  0.15359734528E+03  0.00000000000E+00 0.  1.
<mgrwt>
<rscale>  2 0.23533543E+02</rscale>
<asrwt>0</asrwt>
<pdfrwt beam="1">  1       21 0.89244357E-03 0.23533543E+02</pdfrwt>
<pdfrwt beam="2">  1       21 0.27843253E-01 0.23533543E+02</pdfrwt>
<totfact> 0.40856519E+07</totfact>
</mgrwt>
</event>
<event>
 4    1  0.9374408E+003  0.2159446E+02  0.7546771E-02  0.1715361E+00
         21   -1    0    0  502  501  0.00000000000E+00  0.00000000000E+00  0.15009876766E+04  0.15009876766E+04  0.00000000000E+00 0. -1.
         21   -1    0    0  504  502 -0.00000000000E+00 -0.00000000000E+00 -0.45910743704E+00  0.45910743704E+00  0.00000000000E+00 0. -1.
         21    1    1    2  503  501  0.18003538854E+02 -0.11924478805E+02  0.32340378754E+03  0.32412394296E+03  0.00000000000E+00 0.  1.
         21    1    1    2  504  503 -0.18003538854E+02  0.11924478805E+02  0.11771247816E+04  0.11773228411E+04  0.00000000000E+00 0.  1.
<mgrwt>
<rscale>  2 0.21594458E+02</rscale>
<asrwt>0</asrwt>
<pdfrwt beam="1">  1       21 0.23091725E+00 0.21594458E+02</pdfrwt>
<pdfrwt beam="2">  1       21 0.70633115E-04 0.21594458E+02</pdfrwt>
<totfact> 0.17276424E+07</totfact>
</mgrwt>
</event>
<event>
 4    1  0.9374408E+003  0.4216049E+02  0.7546771E-02  0.1492889E+00
         21   -1    0    0  504  501  0.00000000000E+00  0.00000000000E+00  0.72341398286E+03  0.72341398286E+03  0.00000000000E+00 0. -1.
         21   -1    0    0  501  502 -0.00000000000E+00 -0.00000000000E+00 -0.33377522625E+01  0.33377522625E+01  0.00000000000E+00 0. -1.
         21    1    1    2  503  502 -0.13009612354E+02 -0.40103078097E+02  0.17338764781E+03  0.17843985906E+03  0.00000000000E+00 0.  1.
         21    1    1    2  504  503  0.13009612354E+02  0.40103078097E+02  0.54668858279E+03  0.54831187607E+03  0.00000000000E+00 0.  1.
<mgrwt>
<rscale>  2 0.42160490E+02</rscale>
<asrwt>0</asrwt>
<pdfrwt beam="1">  1       21 0.11129433E+00 0.42160490E+02</pdfrwt>
<pdfrwt beam="2">  1       21 0.51350092E-03 0.42160490E+02</pdfrwt>
<totfact> 0.62904358E+06</totfact>
</mgrwt>
</event>
<event>
 4    1  0.9374408E+003  0.2549592E+02  0.7546771E-02  0.1653979E+00
         21   -1    0    0  504  501  0.00000000000E+00  0.00000000000E+00  0.27358364785E+03  0.27358364785E+03  0.00000000000E+00 0.  1.
         21   -1    0    0  501  502 -0.00000000000E+00 -0.00000000000E+00 -0.78477674525E+01  0.78477674525E+01  0.00000000000E+00 0.  1.
         21    1    1    2  503  502  0.21946150596E+02  0.12977230256E+02  0.15369452833E+02  0.29770154710E+02  0.00000000000E+00 0. -1.
         21    1    1    2  504  503 -0.21946150596E+02 -0.12977230256E+02  0.25036642756E+03  0.25166126059E+03  0.00000000000E+00 0. -1.
<mgrwt>
<rscale>  2 0.25495922E+02</rscale>
<asrwt>0</asrwt>
<pdfrwt beam="1">  1       21 0.42089785E-01 0.25495922E+02</pdfrwt>
<pdfrwt beam="2">  1       21 0.12073490E-02 0.25495922E+02</pdfrwt>
<totfact> 0.12246494E+07</totfact>
</mgrwt>
</event>
<event>
 4    1  0.9374408E+003  0.2872378E+02  0.7546771E-02  0.1612640E+00
         21   -1    0    0  504  501  0.00000000000E+00  0.00000000000E+00  0.14640226602E+02  0.14640226602E+02  0.00000000000E+00 0.  1.
         21   -1    0    0  501  502 -0.00000000000E+00 -0.00000000000E+00 -0.18211768842E+03  0.18211768842E+03  0.00000000000E+00 0.  1.
         21    1    1    2  503  502 -0.43331224061E+01  0.28395066614E+02 -0.19861682279E+01  0.28792370900E+02  0.00000000000E+00 0. -1.
         21    1    1    2  504  503  0.43331224061E+01 -0.28395066614E+02 -0.16549129359E+03  0.16796554412E+03  0.00000000000E+00 0. -1.
<mgrwt>
<rscale>  2 0.28723784E+02</rscale>
<asrwt>0</asrwt>
<pdfrwt beam="1">  1       21 0.22523425E-02 0.28723784E+02</pdfrwt>
<pdfrwt beam="2">  1       21 0.28018107E-01 0.28723784E+02</pdfrwt>
<totfact> 0.10245491E+07</totfact>
</mgrwt>
</event>
<event>
 4    1  0.9374408E+003  0.2327554E+02  0.7546771E-02  0.1687082E+00
         21   -1    0    0  502  501  0.00000000000E+00  0.00000000000E+00  0.44890524429E+02  0.44890524429E+02  0.00000000000E+00 0. -1.
         21   -1    0    0  503  502 -0.00000000000E+00 -0.00000000000E+00 -0.23786010329E+02  0.23786010329E+02  0.00000000000E+00 0. -1.
         21    1    1    2  503  504 -0.18766575423E+02  0.13768312398E+02 -0.13548994169E+02  0.26931877439E+02  0.00000000000E+00 0. -1.
         21    1    1    2  504  501  0.18766575423E+02 -0.13768312398E+02  0.34653508269E+02  0.41744657320E+02  0.00000000000E+00 0. -1.
<mgrwt>
<rscale>  2 0.23275540E+02</rscale>
<asrwt>0</asrwt>
<pdfrwt beam="1">  1       21 0.69062345E-02 0.23275540E+02</pdfrwt>
<pdfrwt beam="2">  1       21 0.36593862E-02 0.23275540E+02</pdfrwt>
<totfact> 0.50186969E+07</totfact>
</mgrwt>
</event>
<event>
 4    1  0.9374408E+003  0.2803409E+02  0.7546771E-02  0.1620894E+00
         21   -1    0    0  503  501  0.00000000000E+00  0.00000000000E+00  0.22160444088E+04  0.22160444088E+04  0.00000000000E+00 0.  1.
         21   -1    0    0  501  502 -0.00000000000E+00 -0.00000000000E+00 -0.50682481750E+00  0.50682481750E+00  0.00000000000E+00 0.  1.
         21    1    1    2  503  504  0.81282711004E+01  0.26829860577E+02  0.17150595016E+04  0.17152886067E+04  0.00000000000E+00 0.  1.
         21    1    1    2  504  502 -0.81282711004E+01 -0.26829860577E+02  0.50047808239E+03  0.50126262693E+03  0.00000000000E+00 0.  1.
<mgrwt>
<rscale>  2 0.28034090E+02</rscale>
<asrwt>0</asrwt>
<pdfrwt beam="1">  1       21 0.34092215E+00 0.28034090E+02</pdfrwt>
<pdfrwt beam="2">  1       21 0.77974823E-04 0.28034090E+02</pdfrwt>
<totfact> 0.43392571E+06</totfact>
</mgrwt>
</event>
<event>
 4    1  0.9374408E+003  0.2037505E+02  0.7546771E-02  0.1737971E+00
         21   -1    0    0  504  501  0.00000000000E+00  0.00000000000E+00  0.18077027232E+02  0.18077027232E+02  0.00000000000E+00 0. -1.
         21   -1    0    0  501  502 -0.00000000000E+00 -0.00000000000E+00 -0.10575948105E+03  0.10575948105E+03  0.00000000000E+00 0. -1.
         21    1    1    2  503  502  0.98711560165E+01  0.17824222187E+02 -0.98625916593E+02  0.10070855992E+03  0.00000000000E+00 0. -1.
         21    1    1    2  504  503 -0.98711560165E+01 -0.17824222187E+02  0.10943462777E+02  0.23127948358E+02  0.00000000000E+00 0. -1.
<mgrwt>
<rscale>  2 0.20375049E+02</rscale>
<asrwt>0</asrwt>
<pdfrwt beam="1">  1       21 0.27810811E-02 0.20375049E+02</pdfrwt>
<pdfrwt beam="2">  1       21 0.16270689E-01 0.20375049E+02</pdfrwt>
<totfact> 0.17994000E+07</totfact>
</mgrwt>
</event>
<event>
 4    1  0.9374408E+003  0.2760523E+02  0.7546771E-02  0.1626176E+00
         21   -1    0    0  503  501  0.00000000000E+00  0.00000000000E+00  0.41934097063E+01  0.41934097063E+01  0.00000000000E+00 0.  1.
         21   -1    0    0  501  502 -0.00000000000E+00 -0.00000000000E+00 -0.22057505815E+03  0.22057505815E+03  0.00000000000E+00 0.  1.
         21    1    1    2  503  504 -0.22937971164E+02  0.15358984817E+02 -0.61025703561E+02  0.66978992459E+02  0.00000000000E+00 0. -1.
         21    1    1    2  504  502  0.22937971164E+02 -0.15358984817E+02 -0.15535594488E+03  0.15778947540E+03  0.00000000000E+00 0. -1.
<mgrwt>
<rscale>  2 0.27605234E+02</rscale>
<asrwt>0</asrwt>
<pdfrwt beam="1">  1       21 0.64514000E-03 0.27605234E+02</pdfrwt>
<pdfrwt beam="2">  1       21 0.33934622E-01 0.27605234E+02</pdfrwt>
<totfact> 0.47888312E+07</totfact>
</mgrwt>
</event>
<event>
 4    1  0.9374408E+003  0.2240046E+02  0.7546771E-02  0.1701417E+00
         21   -1    0    0  503  501  0.00000000000E+00  0.00000000000E+00  0.95593156669E+02  0.95593156669E+02  0.00000000000E+00 0.  1.
         21   -1    0    0  501  502 -0.00000000000E+00 -0.00000000000E+00 -0.12131081950E+02  0.12131081950E+02  0.00000000000E+00 0.  1.
         21    1    1    2  503  504  0.17792138240E+01 -0.22329687447E+02  0.82299598731E+02  0.85293636894E+02  0.00000000000E+00 0.  1.
         21    1    1    2  504  502 -0.17792138240E+01  0.22329687447E+02  0.11624759876E+01  0.22430601725E+02  0.00000000000E+00 0.  1.
<mgrwt>
<rscale>  2 0.22400459E+02</rscale>
<asrwt>0</asrwt>
<pdfrwt beam="1">  1       21 0.14706639E-01 0.22400459E+02</pdfrwt>
<pdfrwt beam="2">  1       21 0.18663204E-02 0.22400459E+02</pdfrwt>
<totfact> 0.40342839E+07</totfact>
</mgrwt>
</event>
<event>
 4    1  0.9374408E+003  0.3075533E+02  0.7546771E-02  0.1589886E+00
         21   -1    0    0  503  501  0.00000000000E+00  0.00000000000E+00  0.25997277180E+02  0.25997277180E+02  0.00000000000E+00 0. -1.
         21   -1    0    0  501  502 -0.00000000000E+00 -0.00000000000E+00 -0.57616598813E+02  0.57616598813E+02  0.00000000000E+00 0. -1.
         21    1    1    2  503  504  0.90006492354E+01  0.29408821863E+02 -0.41188627891E+02  0.51404217313E+02  0.00000000000E+00 0.  1.
         21    1    1    2  504  502 -0.90006492354E+01 -0.29408821863E+02  0.95693062582E+01  0.32209658680E+02  0.00000000000E+00 0.  1.
<mgrwt>
<rscale>  2 0.30755333E+02</rscale>
<asrwt>0</asrwt>
<pdfrwt beam="1">  1       21 0.39995812E-02 0.30755333E+02</pdfrwt>
<pdfrwt beam="2">  1       21 0.88640920E-02 0.30755333E+02</pdfrwt>
<totfact> 0.30862955E+07</totfact>
</mgrwt>
</event>
<event>
 4    1  0.9374408E+003  0.2157868E+02  0.7546771E-02  0.1715642E+00
         21   -1    0    0  503  501  0.00000000000E+00  0.00000000000E+00  0.11818178812E+03  0.11818178812E+03  0.00000000000E+00 0. -1.
         21   -1    0    0  501  502 -0.00000000000E+00 -0.00000000000E+00 -0.81478352506E+01  0.81478352506E+01  0.00000000000E+00 0. -1.
         21    1    1    2  503  504 -0.18990071631E+02  0.10247768316E+02  0.96246966266E+01  0.23627830225E+02  0.00000000000E+00 0. -1.
         21    1    1    2  504  502  0.18990071631E+02 -0.10247768316E+02  0.10040925624E+03  0.10270179314E+03  0.00000000000E+00 0. -1.
<mgrwt>
<rscale>  2 0.21578683E+02</rscale>
<asrwt>0</asrwt>
<pdfrwt beam="1">  1       21 0.18181812E-01 0.21578683E+02</pdfrwt>
<pdfrwt beam="2">  1       21 0.12535132E-02 0.21578683E+02</pdfrwt>
<totfact> 0.50875274E+07</totfact>
</mgrwt>
</event>
